 Position data for CuZr system
        5000 atoms
 2      atom types
  9.30308029E-02   43.076099     xlo xhi
  0.11076000       43.079800     ylo yhi
  9.39247981E-02   43.074699     zlo zhi

 Atoms

           1           1   16.424620       38.700966       27.074326    
           2           1   19.758764       15.922741       30.084377    
           3           1   17.948027       6.9447994       16.538851    
           4           1   21.919357       12.020077       17.953699    
           5           1   39.313972       14.291549       27.871740    
           6           1   5.3031530       4.9722457       15.796155    
           7           1   4.9333501       31.533363       26.933937    
           8           1   7.8966546       37.107761       37.641598    
           9           1   1.4153548       16.809412       26.628338    
          10           1   8.2744417       27.001940       8.4976311    
          11           1   34.434395       15.613159       11.686445    
          12           1   5.7510543       28.258232       18.273581    
          13           1   22.990488       18.614882       8.4651403    
          14           1  0.42755449       8.0000410       3.3789356    
          15           1   29.402525       30.980610       22.082203    
          16           1   8.0999718       12.942518       42.932022    
          17           1   3.5041156       6.3399892       12.099072    
          18           1   1.5565569       7.1208296       1.1633116    
          19           1   27.241026       40.519260       21.504618    
          20           1   3.6432602       12.994946       31.346006    
          21           1   13.737459       25.228432       18.468552    
          22           1   7.7550220       17.892986       29.951397    
          23           1   35.782131       20.084940       41.422276    
          24           1   41.048016       8.4788465       33.721535    
          25           1   8.5808153       17.880146       17.771898    
          26           1   12.050179       25.601896       22.285788    
          27           1   2.0743144       40.260738       4.8341961    
          28           1   34.564262       30.429722       36.122417    
          29           1   35.640125       13.635659       16.987059    
          30           1   7.0027437       17.632004       8.5491362    
          31           1   31.399221       2.5508845       15.777633    
          32           1   32.456470       17.550724       42.396053    
          33           1   2.8067524       14.741776       25.963642    
          34           1   26.721703       27.880268       40.991329    
          35           1  0.10558011       34.273144       15.786647    
          36           1   29.643387       39.392265       7.3793836    
          37           1   42.528820       4.2020698       37.885002    
          38           1   41.239742       30.748766       26.954575    
          39           1   17.271109       22.217340       13.411808    
          40           1   16.930124       13.384975       34.842934    
          41           1   18.822876       13.619794       29.748709    
          42           1   16.995028       26.552237       22.067467    
          43           1   8.1092968       30.700090       20.612020    
          44           1   7.6364045       4.8321953       10.477376    
          45           1   22.317606      0.31537154       5.2341681    
          46           1   13.535873       31.424896       11.970406    
          47           1   27.585981       25.652512       27.644043    
          48           1   38.351677       31.875729       14.144470    
          49           1   39.776554       40.496510       26.071497    
          50           1   19.502859       4.3129649       5.2106552    
          51           1   23.010151       6.6575017       4.2880645    
          52           1   31.556694       39.090851       39.080139    
          53           1   17.459499       23.398413       18.812874    
          54           1   11.958442       37.518772       18.635384    
          55           1   15.521841       3.4434333       4.7920237    
          56           1   15.788558       29.129669       37.536427    
          57           1  0.26701537       11.648355       39.401524    
          58           1   42.521935       40.218533       9.8671513    
          59           1   29.675879       8.4154329       15.579410    
          60           1   35.406120       25.460594       16.079809    
          61           1   36.741520       40.383755       18.945196    
          62           1   39.168976       37.467884       17.240438    
          63           1   16.617224       18.953365       4.0609088    
          64           1   18.520279       14.572067       19.095573    
          65           1   20.775711       23.071915       33.583683    
          66           1   29.113956       33.900154       11.036330    
          67           1   22.847570       11.107084       20.374985    
          68           1   16.615316       18.542017       27.383007    
          69           1   24.073778       14.991275       4.0813603    
          70           1   13.444764       9.1218185       36.301022    
          71           1   10.399264       41.201241       28.107103    
          72           1   12.748614       9.0786133       13.498191    
          73           1   21.386429       12.917195       37.944061    
          74           1   16.319609       12.130441       6.9465375    
          75           1   30.474531      0.55582023       20.930330    
          76           1   11.281615       25.387253       17.056431    
          77           1   26.932526       41.229614       11.603656    
          78           1   40.448296       23.042124       5.6670976    
          79           1   25.406885       32.389893       31.635172    
          80           1  0.93995029       29.459372       30.368084    
          81           1   23.176773       2.6558545       6.0391803    
          82           1   20.157005       6.5595484       4.7765388    
          83           1   13.244432       34.182755       40.741280    
          84           1   33.821739       22.844446       10.990053    
          85           1   33.184738       22.596844       36.276886    
          86           1   7.0088296       10.723301       42.639526    
          87           1   7.4475002       27.664595       6.1885929    
          88           1   18.032194       22.458393       23.382294    
          89           1   16.653500       19.649851       8.4558697    
          90           1   4.9269600       14.585003       24.562944    
          91           1   33.991192       26.530472       24.795847    
          92           1   28.727022       22.637505       10.534779    
          93           1   33.652008       21.306192       6.9916592    
          94           1   9.8855286       13.949451       6.3361850    
          95           1   13.084602       21.215204       33.119568    
          96           1   23.356863       15.861174       27.378578    
          97           1   15.470700       40.645340       9.1995430    
          98           1   37.660557       6.9297209       28.568794    
          99           1   26.710432       22.080175       9.5038147    
         100           1   10.986073       38.262600       14.478978    
         101           1   38.209312       1.0507292       12.483171    
         102           1   42.773842       39.956684       5.4214201    
         103           1   21.335035       28.925949       31.744438    
         104           1   15.311375       35.579777       6.0638213    
         105           1   25.236380       15.820553       40.984520    
         106           1   19.967110       24.643942       1.0046930    
         107           1   38.495060       34.641808       21.423220    
         108           1   15.155995       20.228102       20.447327    
         109           1   16.455795       15.709645       33.600376    
         110           1   6.6510735       13.683064       32.289955    
         111           1   21.555170       25.862728       10.732183    
         112           1   38.291908       22.073376       32.436283    
         113           1   22.242895       2.3819447       37.776310    
         114           1   31.353390       10.281365       11.512437    
         115           1   38.495449       23.609219       18.967991    
         116           1   33.697372       15.829048       32.636635    
         117           1   16.037079       36.149033       30.151516    
         118           1   32.897060       35.403717       4.8582292    
         119           1   18.830299       35.097015       36.847191    
         120           1   27.875134       35.802681       37.924664    
         121           1   36.021488       23.379103       32.582989    
         122           1   3.7688391       22.998428       10.938686    
         123           1   24.464916       9.3201036       36.224228    
         124           1   22.504480       32.566017       7.3189273    
         125           1   37.049728       29.939297       35.591209    
         126           1   23.949577       13.016479       2.5032527    
         127           1   8.7923002       25.772259       17.759272    
         128           1   35.497612       4.2963624       16.072403    
         129           1   1.5014462       13.562444       4.1607203    
         130           1   11.449893       1.4227375       23.256638    
         131           1   29.411116       39.810982       37.791958    
         132           1   37.257698       20.986065       36.782440    
         133           1   18.440620       42.363289       14.602122    
         134           1   41.864708       42.586304       7.9734826    
         135           1   27.669907       20.265051      0.22085190    
         136           1   34.243958       19.316681       3.4123702    
         137           1   8.3689289       32.531559       23.576689    
         138           1   30.677269       12.747939       12.067175    
         139           1   30.473141       11.717539       17.934858    
         140           1   26.992113       2.8270421       2.6876786    
         141           1   1.8323020       24.769579       1.2457975    
         142           1   7.2319484       22.428387       5.4700069    
         143           1   30.053169       6.8198085       9.3102598    
         144           1   24.686697       5.3670807       40.071445    
         145           1   9.0869598       6.1218228       32.819313    
         146           1   19.134659       34.096649       23.071302    
         147           1   6.3799429       33.894157       1.9088928    
         148           1   40.149837       16.246862       37.986698    
         149           1   25.425211       6.4852467       21.222511    
         150           1   36.651001       34.717503       27.079309    
         151           1   25.634722       9.4689512       38.617916    
         152           1   19.230915       14.294806       4.4254847    
         153           1   28.487120       15.108770       2.9134068    
         154           1   33.921749       5.0322132       29.104530    
         155           1   12.170140       4.3274369       41.103977    
         156           1   33.846542      0.22005844       28.379551    
         157           1   41.187016       33.951164       2.2103732    
         158           1   12.669738       5.4672165       38.936649    
         159           1   42.744919       4.9223719       42.744148    
         160           1   23.186068       8.7954044       42.489502    
         161           1   15.108433       39.314754       36.579105    
         162           1   1.6558777       3.2064884       32.228790    
         163           1   5.0364118       18.866535       9.2527256    
         164           1   10.345731       42.597286       40.338676    
         165           1   13.547788       4.1329293       12.438712    
         166           1   33.572372      0.20551279       38.042679    
         167           1   30.991850       34.298836       19.489361    
         168           1   12.224635       34.316532      0.26501963    
         169           1   26.808907       8.3927917       6.3444381    
         170           1   26.113104       16.511272       36.364136    
         171           1   42.429386       31.131109       40.546886    
         172           1   37.867680       19.764143       19.834593    
         173           1   38.201580       42.655266       16.547491    
         174           1   13.422475       7.2444053       21.706858    
         175           1   19.743799       3.5030894       40.945019    
         176           1   19.288521       6.4782834       7.0873518    
         177           1   34.367252       34.695496      0.66948265    
         178           1   14.324675       31.819798       40.640652    
         179           1   9.5374966       39.949539       1.5037385    
         180           1   17.197891       31.058947       9.7601757    
         181           1   18.306957       21.083519       4.4499831    
         182           1   14.264421       22.203459       5.7404704    
         183           1   23.635004       5.1856322       6.4718137    
         184           1   26.535122       24.379025       33.779453    
         185           1   6.2744193       37.852211       27.509718    
         186           1   30.262987       16.295362       25.845091    
         187           1   22.365097       9.9310856       24.298450    
         188           1   40.994911       37.040451       24.161158    
         189           1   28.166132       5.1417832       21.902494    
         190           1   29.434353       36.163883       20.275335    
         191           1   19.527306       8.3870621       8.7544403    
         192           1   1.7586851       13.839746       20.602797    
         193           1   25.930161       10.563514       7.4463735    
         194           1   21.909142       24.058578       5.2777328    
         195           1   34.547089       32.621841       8.0127726    
         196           1   23.170242       27.535191       32.788082    
         197           1   9.0662079      0.85187483       42.344711    
         198           1   11.252800       23.325834       37.982155    
         199           1   24.823355       17.733650       38.251472    
         200           1   22.926460       29.964756       42.241516    
         201           1   24.764063       16.286877       17.343063    
         202           1   39.931717       39.817623       21.785492    
         203           1   2.9870386       28.043856       7.1064353    
         204           1   16.114983       7.2277288       25.202061    
         205           1   14.459410       11.557488       11.118876    
         206           1   11.598121       20.919563       28.319244    
         207           1   3.7693856       9.0627928       39.214031    
         208           1   37.567554       15.221724       16.622084    
         209           1   36.218456       2.8712842       33.897079    
         210           1   41.448864       13.529142       29.110575    
         211           1   14.925600       35.035389       15.359737    
         212           1   9.0742121       31.382256       3.9654708    
         213           1   11.702538       25.169384       39.666843    
         214           1   27.901691       28.930910       21.295042    
         215           1   41.319759       39.768036       12.007625    
         216           1   18.633966       16.795069       32.212868    
         217           1   9.9607916       8.4715519       7.6527328    
         218           1   21.336798       17.787640       2.3853047    
         219           1   17.516710       25.783518       33.149986    
         220           1   37.369759       37.644402       13.168695    
         221           1   6.0698113       39.579948       25.367393    
         222           1   12.535042       21.954676       3.8693461    
         223           1   33.028233       21.515150       4.5689273    
         224           1   33.737415       1.5435935       16.407564    
         225           1   23.057318       7.3557353       20.637793    
         226           1   13.813449       5.6370411       17.647377    
         227           1   25.913197       12.366930       24.907211    
         228           1   9.7085419       16.050146       21.378893    
         229           1  0.36231458       26.768999       42.984375    
         230           1   19.334314       23.483793       4.9600954    
         231           1   35.746120       18.442863       19.933060    
         232           1   18.257998       27.022900       8.3433619    
         233           1   11.677951       38.932652       5.9453063    
         234           1   6.4979658       12.799690       27.978653    
         235           1   30.223837       21.661358       26.956825    
         236           1   14.000348       25.517965       16.105230    
         237           1   35.008007       17.376459       5.3831558    
         238           1   20.833193       42.946209       29.307474    
         239           1  0.95448899       6.0003476       11.289961    
         240           1   38.408413       31.009012       1.8140018    
         241           1   31.446997       8.9924974       1.6668444    
         242           1   28.900772       10.529008       22.469839    
         243           1   33.191059       17.397131       15.660932    
         244           1   5.0659471      0.73058337       19.252190    
         245           1   36.489491       3.4986050       13.643012    
         246           1   33.077236       19.038557       5.7328463    
         247           1   28.599506       6.7986579       17.254698    
         248           1   17.478668       40.962257       16.556204    
         249           1   5.0600314       38.680401       23.309803    
         250           1   33.877808       14.681697       30.435656    
         251           1   9.2206793       1.8996190       35.059505    
         252           1   5.6050963       36.353050       22.599329    
         253           1   15.841144       13.230572       37.199711    
         254           1   27.399446       16.130789       17.358747    
         255           1   40.139339       15.546963       29.996315    
         256           1   10.817769       7.5351782       21.477734    
         257           1   29.315941       13.677397       19.598825    
         258           1   32.927658       3.2033892      0.24467270    
         259           1   39.243252       10.822110       31.047741    
         260           1   1.6699502       33.104885       4.4086180    
         261           1   23.865170       27.668522       7.5214725    
         262           1   34.880428       39.936394       17.533966    
         263           1   1.5783715       4.7261086       1.2317756    
         264           1  0.38259935       18.780943       10.252507    
         265           1   19.740017       20.880436       34.026062    
         266           1   29.625010       1.5776404       30.072521    
         267           1   5.1234312       6.5092158       3.4688313    
         268           1   37.560158       3.8428781       31.860075    
         269           1   34.113564       11.453149       20.559071    
         270           1   12.154707       36.348007       11.355319    
         271           1   14.608090       17.158068       23.361471    
         272           1   38.288960       36.569054       27.473219    
         273           1   15.226612       38.479748       29.148237    
         274           1   12.301193       17.143288       22.197397    
         275           1   2.7763894       15.975333       7.4601359    
         276           1   4.2544999       35.045124       16.334770    
         277           1   34.363106       30.584679       3.8870890    
         278           1   36.908657       3.0340796       5.6326170    
         279           1   5.2174520       9.9960327       41.068779    
         280           1   29.063263       19.712986       23.419790    
         281           1  0.73463500       6.7017689       5.5721345    
         282           1   27.919559       3.3189445       7.8845415    
         283           1   39.024059       27.190754       29.932362    
         284           1   10.865746       2.4355412       15.570951    
         285           1   39.131279       18.090099       39.411781    
         286           1   14.133723       7.3631377       8.2184935    
         287           1   27.048813       23.168797       18.312494    
         288           1   1.3079729       11.559640       19.812132    
         289           1   13.618389       20.042576       39.500095    
         290           1   19.161007       12.340036       34.071373    
         291           1   23.074053       7.5311189       14.095314    
         292           1   10.358196       31.715347       19.854328    
         293           1   4.8580265       35.820694       11.597747    
         294           1   39.867455       13.312483       1.7646133    
         295           1   36.464809       37.827892       17.828905    
         296           1   24.406963       30.915565       35.967201    
         297           1   20.737501       2.2225459       5.3870759    
         298           1   8.8212910       30.082003       12.377223    
         299           1   15.670362       37.218792       24.353230    
         300           1   39.553135       23.426933       43.066105    
         301           1   4.6621966       21.549717       35.155102    
         302           1   8.3648214       34.702286       36.508835    
         303           1   3.3741202       16.035795       28.141937    
         304           1  0.17046298       14.971099       25.228987    
         305           1   22.632307       2.2065473       3.5746653    
         306           1   23.091541       4.3344202       2.0911400    
         307           1   8.7694702       41.601685       32.625286    
         308           1   13.411363       14.423311       3.6573293    
         309           1   22.001442       25.243902       33.137562    
         310           1   42.280983       27.987047       37.535526    
         311           1   10.186123       17.484388       13.056764    
         312           1   13.959231       30.183756       7.5234580    
         313           1   36.114319       19.959429       21.914171    
         314           1   35.652359       36.584656       42.009735    
         315           1   18.385132       38.699291       20.495493    
         316           1   24.892401       10.047100       24.795839    
         317           1   20.555912       16.164267       15.786109    
         318           1   33.268383       40.367237       43.057655    
         319           1   33.270702       9.3511086       39.586342    
         320           1   25.912115       25.259571       21.891613    
         321           1   26.137180       17.569118       19.233252    
         322           1   1.0264498       1.7415844       34.461197    
         323           1   24.828939       19.954033       31.931774    
         324           1   37.540489       41.598328       11.561659    
         325           1   36.061695       24.743364       34.734589    
         326           1   18.517662       32.879368       3.5254829    
         327           1   36.481567       32.256485       39.380817    
         328           1   40.480946       40.791275       30.430443    
         329           1   8.7950249       6.8994203       17.007774    
         330           1   15.807405      0.40261558       22.647284    
         331           1   18.608725       28.188944       3.8056493    
         332           1   7.8062258       1.1297295       18.901049    
         333           1   14.911424       38.462467       41.155167    
         334           1   31.400303       23.313452      0.30850187    
         335           1   30.119825       3.3874905       31.730715    
         336           1   22.719828       39.705105       41.841557    
         337           1   39.165833       41.410648       28.285610    
         338           1   30.028955       25.421291       7.6267805    
         339           1   9.6028862       13.195142       15.046579    
         340           1   14.330264       33.302917       38.637512    
         341           1   35.520531       24.979355       42.633923    
         342           1   32.129578       37.011269       35.025269    
         343           1   3.7933910       20.119879       7.5364952    
         344           1   28.368162       30.950794       17.650269    
         345           1   32.670975       35.877155       28.638538    
         346           1   21.430956       8.6584253       4.0218344    
         347           1   4.4408312       31.869944       34.196651    
         348           1   28.492857       3.7189319       33.626862    
         349           1   34.023338       15.520642       22.018896    
         350           1   3.9787159       15.180305       11.816813    
         351           1   29.290035       24.249851      0.88631123    
         352           1   7.7001448       5.6752172       35.082588    
         353           1   38.829166       2.0339112       30.634453    
         354           1   11.322200       1.4236344       6.3493643    
         355           1   11.022860       17.634882       17.741306    
         356           1   25.470499       41.042053       34.976704    
         357           1   4.5065589       30.057590       24.798471    
         358           1   24.442240       2.5625362       36.461777    
         359           1   14.781243       32.850777       6.0420647    
         360           1   25.417818       1.3192611       40.657490    
         361           1   23.417477       12.053989       25.318045    
         362           1   12.860878       42.653320       31.910734    
         363           1   35.137497       14.908010       26.275204    
         364           1   37.599930       37.817810       35.788223    
         365           1   2.5719955       33.939060       41.686310    
         366           1   30.616959       30.448626       24.533958    
         367           1   24.112417       4.5323763       19.417273    
         368           1   24.167517       18.115957       26.030012    
         369           1   40.678722       25.440908       30.752457    
         370           1   21.459038       8.7820206       12.549378    
         371           1   9.5405426       19.604656       29.001137    
         372           1   34.101135       25.068291       36.175583    
         373           1   10.761907       34.504589       41.402210    
         374           1   1.7141033       28.205704       27.670309    
         375           1   2.5763817       25.268177       36.859108    
         376           1   14.462472       14.013109       29.967165    
         377           1   36.525105       21.799915       7.5756154    
         378           1   34.999928       11.397722       11.051096    
         379           1   21.122869       37.437057       33.251537    
         380           1   9.2973261       21.436121       14.747501    
         381           1   31.297615       22.302729       32.063057    
         382           1   15.069304       31.172295       28.361319    
         383           1  0.95511150       25.642225       22.797750    
         384           1   42.067661       21.436541       31.660803    
         385           1   32.848339       14.200864       34.508514    
         386           1   11.149654       39.192451       16.859573    
         387           1   42.354321       22.042465       18.287357    
         388           1   9.2403660       38.819622       18.228546    
         389           1   21.989819       20.112431       41.886951    
         390           1   35.946697       36.265614       36.949226    
         391           1   38.098682       8.8266058       15.753800    
         392           1   17.948185       28.625788       41.718060    
         393           1   5.1704006       30.193027       36.104027    
         394           1   26.450199       16.157515       4.0222650    
         395           1   19.805429       11.374305      0.13942379    
         396           1   30.156403       30.196259       33.670357    
         397           1   6.2657628       6.0265527       8.9194574    
         398           1   5.8440771       14.746784       19.583147    
         399           1   39.840763       2.0442023       1.7633381    
         400           1   35.730511       36.527184       39.391247    
         401           1   15.382194       38.992729       13.173933    
         402           1   29.775949       4.0116220       26.509594    
         403           1   19.103407       41.961979       27.893957    
         404           1   41.313683       11.141823       25.577429    
         405           1   8.9983301       13.595914       8.7378817    
         406           1   34.393967       31.243147       38.587589    
         407           1   5.2965221       14.259034       34.569874    
         408           1   13.176269       31.053391       1.9389268    