# LAMMPS data file written by OVITO
10001 atoms
2 atom types
0.0534021 51.5051995 xlo xhi
0.0534021 51.5051995 ylo yhi
0.0534021 51.5051995 zlo zhi

Atoms # atomic

9739 2 3.08148 2.9292902 3.3083
8656 2 1.83455 4.6407199 5.5869098
9599 2 1.95753 4.9990802 1.26819
8129 2 0.856803 2.1866601 0.961894
2033 1 1.2499 2.1663401 5.6668701
6103 2 4.8140898 5.3375902 2.13938
6664 2 4.14329 2.77524 6.0501099
1775 1 3.11355 0.574111 4.98103
5320 1 0.467667 1.22205 3.53983
8032 2 3.65939 2.5775199 0.338075
9571 2 4.8130498 0.274584 1.40744
4117 1 5.1630998 1.2679 3.94683
9737 2 4.7701502 5.7156902 5.4259801
8714 2 0.133385 3.8021701 3.5592799
7481 2 2.4149301 0.101696 2.59442
4886 1 5.3879399 2.78787 2.14289
6190 2 9.2825604 4.9141402 0.638563
8896 2 6.3985801 3.60657 4.4203701
5225 1 7.2744098 4.2284999 1.81169
842 1 7.79808 2.1374099 2.8771802
4865 1 9.1236601 4.4691601 3.26823
6250 2 9.12008 2.77874 5.1005001
5094 1 7.38096 1.05957 5.0338302
4686 1 8.9750204 0.46827 1.31003
3420 1 8.0612402 5.2227402 5.8039799
9736 2 6.9615402 2.0636001 0.318699
3855 1 9.2401695 0.244427 3.7309101
6256 2 10.1309004 2.4400301 2.1141801
5566 1 5.5618801 4.3334398 0.0866725
3244 1 11.1154003 0.829213 0.134203
3509 1 12.5450001 2.0959899 1.90918
3515 1 13.8092003 3.70066 3.23369
344 1 11.4981003 3.4574499 3.98156
8923 2 13.4095001 3.1488299 5.7297201
6635 2 11.8042002 4.9948802 2.0888701
6759 2 11.3228998 1.04058 5.0461402
9471 2 14.1675997 3.9054202 0.653516
3146 1 13.5143004 1.27808 3.86884
1945 1 14.5653 0.834054 5.9354502
4189 1 15.0313997 5.1869102 4.7427702
5055 1 12.698 5.4678402 4.8994002
3502 1 15.2228003 2.07388 2.03227
4131 1 11.1337996 3.5595801 6.32159
5560 1 15.6090002 2.5964401 4.5439401
7951 2 18.0487003 3.0597999 4.7789998
253 1 17.6082993 1.71846 2.3055999
9881 2 19.6648007 3.4423599 2.3656099
8798 2 16.3276005 4.3990502 2.7547901
3961 1 19.5725003 5.1096602 4.2952099
1160 1 19.2166004 1.86783 0.300791
8524 2 17.2360993 3.6438999 0.333867
6531 2 16.2028008 0.165089 4.1213698
7057 2 20.6228009 2.2839601 5.2241802
3993 1 17.3509998 5.5802698 4.6478901
7848 2 18.9272996 0.0697882 3.96962
3477 1 19.7026997 4.3117099 0.0569636
6011 2 25.6756001 2.16886 0.688046
8387 2 21.0499001 1.0697 2.4424501
469 1 23.5718003 0.9478 1.80567
9465 2 24.6938 4.05722 4.95927
2777 1 22.8444996 2.04968 4.2520299
6252 2 23.2928009 3.40377 2.0307801
7265 2 21.9491998 4.6531601 4.3844299
883 1 24.6779003 1.56014 5.92243
3883 1 25.1914997 2.16837 3.45308
9740 2 21.5433998 5.5494399 1.4489401
4252 1 21.5855007 2.6985801 0.281746
2804 1 24.4580994 5.63202 0.624491
1358 1 23.1091995 5.6546898 6.4233699
3790 1 2.9381102 5.81843 3.7758
2010 1 2.9001602 7.3399 1.95312
6121 2 1.19533 9.18114 1.8656502
121 1 2.4704399 8.4212399 4.2445202
9912 2 0.615024 6.7940898 3.6654601
3941 1 3.5580001 9.9533596 2.4338701
9550 2 4.32898 10.3016997 4.9886198
9259 2 1.42417 11.1035004 3.96065
9132 2 4.8810302 7.99261 3.7298901
1326 1 2.6638899 6.9299202 6.1537099
9888 2 5.0283799 8.1013298 0.85418
3185 1 0.155881 9.1821003 4.7242899
8739 2 0.127737 7.0802498 6.4272199
5312 1 0.199442 11.2854004 6.4753399
8587 2 7.3189001 6.3139501 3.4654801
3043 1 8.9516002 8.0540895 4.5104199
847 1 9.6021405 6.7796798 2.4086599
9008 2 7.5278902 8.8123102 1.99774
3802 1 6.94555 9.5109902 4.53405
1492 1 5.8118701 10.7382002 2.56864
8312 2 9.2430897 10.2807999 5.7089401
3583 1 8.5387602 10.9997998 3.1196301
1736 1 7.0976701 6.3429899 0.609469
9020 2 6.9337602 7.48421 6.1940498
41 1 8.76752 10.2933998 0.33529
3203 1 6.0710702 10.4039002 0.126166
7128 2 10.3203001 5.9510798 4.9425002
9803 2 10.4253998 9.2435303 2.8311901
7977 2 13.8410998 8.43641 1.2112401
4323 1 14.0879002 6.0685101 2.44558
4377 1 11.6393004 7.2562399 1.0268199
6442 2 14.1507998 7.6360502 4.4529901
5681 1 11.9702998 7.2622099 3.3034799
5211 1 12.8088999 9.6808701 3.5813401
1667 1 11.3938999 8.5293503 5.2985201
3401 1 14.2420998 9.7593899 5.60146
4178 1 11.3509998 9.8052798 0.719068
178 1 12.1231003 10.9376002 5.62426
4946 1 15.0977001 10.8914004 0.461309
8584 2 15.5486002 10.0241003 2.89284
3172 1 15.9413996 6.0503202 0.856432
9319 2 18.5883007 6.3235798 1.84191
1119 1 16.3637009 7.2288799 3.0819299
4771 1 16.4934006 8.9928504 5.0223899
6047 2 18.2322998 9.3307305 2.70995
2842 1 19.9120998 10.8602 1.23393
8201 2 18.8230992 7.6114502 4.7244101
4000 1 18.6196995 10.1269999 5.2864499
986 1 16.5345993 8.6680899 0.577436
5086 1 17.4671002 11.1490002 1.20283
5794 1 20.5839005 8.3385697 1.41703
7579 2 16.0268002 6.7887302 6.4221602
5935 1 23.6739998 5.85769 2.97959
5069 1 20.7231007 11.2453003 5.99398
4450 1 20.7105999 8.8585796 6.0954299
3389 1 21.0107002 7.0497298 3.5541101
5093 1 20.9804994 6.5615301 5.9572202
9620 2 21.1338997 9.6677599 3.6628399
7503 2 24.0914993 10.2299004 3.30725
9544 2 23.2350006 7.67902 4.8473502
5003 1 22.8941994 8.16395 2.38923
2836 1 24.5664997 9.3350296 0.731606
7990 2 25.4857998 7.6034298 2.0963099
9009 2 22.2789993 10.2479 0.742417
9237 2 23.2775993 10.2953997 6.1409202
792 1 25.6168003 6.3499699 4.3245802
8974 2 4.4371901 12.1950998 0.692479
938 1 3.94415 12.2783003 3.54689
6102 2 1.91128 12.0804997 1.52169
8606 2 1.08937 15.0558004 1.93012
8114 2 4.3891802 14.5251999 4.85668
2761 1 3.60551 14.3511 2.2531099
2476 1 1.87078 13.7938004 3.9017602
4546 1 2.85161 16.1348991 3.9189502
4601 1 2.95473 16.4845009 0.980797
413 1 1.58423 15.1843004 5.97016
4920 1 0.344288 16.1175003 4.0103002
9369 2 2.39906 12.6344004 6.1304798
995 1 4.9898902 12.4259005 6.2505899
8659 2 5.1129999 16.6557999 2.3843801
8455 2 5.1536102 14.7257996 0.245239
1709 1 5.55302 16.7404995 4.8603502
2337 1 9.6591301 14.4481001 0.421087
1711 1 9.0980301 12.7916003 5.3236199
1798 1 5.9018002 13.6604004 2.6702099
7179 2 6.7673202 12.1575003 4.53016
3419 1 7.4169502 15.2969999 1.569
7141 2 7.4226198 15.1850996 4.3084102
7311 2 9.2880497 13.5628004 3.00495
3427 1 9.6833 15.8488998 2.44223
8958 2 7.5345998 12.4294005 1.10523
8715 2 9.9914704 16.7353001 4.7697802
1905 1 10.2133999 11.8501998 1.3743
2895 1 6.68186 14.0319996 6.4486799
7534 2 12.9131002 11.5674 1.9841502
860 1 10.8565998 11.6198998 3.7904601
9457 2 11.7068997 13.8038998 4.7746701
9292 2 14.4106999 12.1079998 4.64608
125 1 11.6492996 13.9463998 1.6638201
1670 1 13.7559996 14.0184002 2.98113
1249 1 14.1401997 14.7180004 5.4358201
846 1 12.0228996 15.7791004 3.20188
8609 2 14.8142004 16.4403 3.5702501
3209 1 13.6124001 15.8437004 1.22049
8394 2 11.3126001 16.7367993 0.698213
5184 1 12.5752001 16.7150002 5.3675199
6960 2 14.0335999 13.6155997 0.135457
2704 1 15.4854002 12.5213003 2.2363401
5633 1 17.0077 11.6759997 4.2343502
6071 2 19.8918992 13.2985001 0.522978
5016 1 15.8122998 14.9687004 1.83173
9155 2 19.6392994 12.0397997 3.77632
1752 1 16.1102009 14.1527004 4.1486101
7717 2 18.1030998 16.1641007 3.3727701
6735 2 17.8167 13.4218998 2.47415
5990 1 18.0459003 15.4863997 0.926176
5622 1 18.3582993 14.4165001 5.0710101
5646 1 16.4106007 16.1499004 5.6218601
2667 1 20.1100006 14.5930004 2.7705601
4109 1 18.5286007 12.4118996 6.2918401
1924 1 18.6467991 16.9676992 5.86098
4278 1 20.2618008 15.9404002 0.0733077
8599 2 21.1557999 17.1355991 2.2284701
1965 1 20.8006001 16.1662998 4.5270801
9633 2 20.7758007 13.8521996 5.5717702
5890 1 25.4358998 15.2195997 5.5200601
4330 1 22.3106003 11.8732004 4.3369699
611 1 25.0424995 14.5164004 3.10513
6242 2 22.3220997 14.8505002 1.13609
5536 1 21.5209008 12.4052 2.22456
7595 2 24.3351002 13.0160999 5.0952101
5539 1 22.4449997 14.1877003 3.6350901
7657 2 25.0258007 15.9783002 1.09542
7784 2 24.0091991 12.5725003 1.85104
2722 1 22.9426004 15.2166004 5.93051
7444 2 23.5230999 16.5230999 3.76686
6595 2 0.5680411 2.5966101 11.7462998
1014 1 0.555593 5.2016702 11.5454998
8781 2 2.88152 0.617552 7.7487302
4486 1 2.1930399 2.0759399 9.8090296
6603 2 2.41923 4.7666202 9.8729
2306 1 1.94305 3.14252 7.7533202
9059 2 3.7521 2.6754701 11.8218003
2578 1 3.56795 4.9236798 7.4967599
7330 2 4.5994301 2.9736 8.87183
4064 1 4.8130203 4.7708302 10.7059002
4893 1 1.23721 5.4795699 7.8680802
8324 2 2.92784 5.31527 12.5268002
7965 2 4.0872998 0.159047 10.4847002
5909 1 5.7390399 0.721432 8.7491102
5494 1 8.9158298 0.657229 11.3767996
5136 1 6.1757202 4.5996499 7.1955099
8657 2 7.1912198 2.32337 7.2901201
4095 1 6.9215498 4.12956 9.5124598
6616 2 8.97184 2.63046 9.8607502
8292 2 6.6500001 4.4063702 12.2587004
8353 2 9.3280602 4.4577999 7.87877
7876 2 6.5381699 1.79136 11.2805004
4810 1 9.0733204 3.1346099 12.3618002
174 1 8.6272002 5.33531 10.8651
1800 1 9.9610796 1.7412 7.53267
9922 2 11.1082001 0.145111 9.3424397
4046 1 10.7756005 4.3397899 10.6543999
3143 1 12.3802004 1.33013 7.3189902
3485 1 13.5005999 1.49894 9.9256898
783 1 13.1982002 3.65132 11.1177998
9958 2 12.0569 3.38131 8.6928797
4908 1 14.5808001 4.00527 9.1951103
4375 1 11.2196999 2.02088 11.1521998
1324 1 14.5362997 2.2265 7.7880602
4675 1 13.8223 5.1722698 7.1779199
9035 2 13.151 1.31769 12.5925999
4688 1 15.3781004 2.40977 11.4433003
175 1 13.3844996 5.7003198 12.5081997
4716 1 11.4833002 5.71065 7.25072
3824 1 19.5555001 0.734233 6.6424098
8042 2 15.6941996 4.9964 11.1091995
7675 2 17.0028992 0.989799 6.7084699
9261 2 16.1035996 3.93531 6.7718001
7110 2 16.3936997 2.16062 9.2837696
1209 1 18.4972992 3.10866 7.2729702
4491 1 18.7001992 1.39193 8.9426604
854 1 17.8959008 3.0189199 11.0524998
6040 2 19.4974995 4.17593 9.2996998
5174 1 17.1079998 4.6349602 8.9612104
1608 1 20.0860996 4.2118101 11.7824002
8196 2 18.0921001 0.365919 11.2643004
3153 1 18.1326008 5.61272 11.2192001
9466 2 20.4941006 1.7430001 10.5712996
4744 1 19.3456993 2.1989601 12.8325997
217 1 20.5335007 0.117013 12.5902996
4291 1 21.1082001 0.0892591 8.7166796
235 1 20.6672993 4.30688 6.5658899
4066 1 25.6121006 3.9724802 7.5532899
5455 1 20.8132 2.38218 8.02981
6919 2 22.4953995 0.688101 6.72783
4251 1 22.8286991 1.87412 9.4060497
3820 1 25.0373001 1.60251 8.2736797
7767 2 22.3596993 4.2806101 10.1922998
9066 2 24.6334 1.38194 11.1687002
6607 2 23.0613003 3.38514 7.3524199
1688 1 24.8383007 3.5330401 9.85071
3664 1 24.1247997 3.76579 12.1973
5296 1 22.1765003 5.27354 12.5424996
5764 1 24.0021992 5.5668602 8.7236405
7671 2 22.0855007 2.5293 12.6675997
1054 1 21.4069004 5.7118702 8.35987
543 1 4.49152 8.3900204 6.6782298
8493 2 2.0143499 9.5601597 6.5742898
1301 1 1.55338 7.2798 11.2748003
5637 1 2.8998102 9.375 11.0888004
6394 2 2.31492 7.6909499 8.7849903
2357 1 3.88288 6.9930402 10.7319002
1464 1 2.0262201 10.3105002 9.0119305
4364 1 4.46239 9.0389299 9.1362305
2288 1 4.3453598 11.2552004 10.3646002
6181 2 0.312148 9.3539 10.8916998
6296 2 5.0422602 6.5004502 8.4966698
120 1 3.95333 10.9447002 7.7563901
3735 1 0.103381 8.9927398 8.2384195
1620 1 5.29843 6.5598102 12.8393002
3623 1 5.8726702 11.1543999 12.5220003
1186 1 7.7442298 9.60637 12.5254002
7420 2 5.5841298 8.6989098 11.4686003
2174 1 6.8453698 8.3916798 8.7746296
1501 1 7.7223501 6.2106099 8.4199696
6684 2 9.5339899 7.7110601 7.2856102
1282 1 6.4439101 6.5152102 10.4996004
7343 2 6.3414602 10.2222004 7.1784501
9090 2 8.6971998 7.94444 10.3399
3443 1 9.5236502 10.2693005 11.0921001
2958 1 8.9852506 10.0565996 8.5834704
9763 2 6.92728 10.6124001 10.0902996
1595 1 7.6590801 7.0524302 12.4868002
6917 2 10.0951004 8.3181696 12.8958998
1442 1 10.3708 6.3031702 9.3308897
8648 2 12.9072 5.9903598 9.8455096
9634 2 13.1082001 7.66501 7.16606
7224 2 11.3768997 8.6875696 9.8329096
2723 1 11.1778002 9.5888701 7.5020099
9894 2 13.2426996 8.1842299 12.2257996
2715 1 11.0704002 6.4161201 11.6859999
658 1 11.8556996 10.3375998 12.1927004
4833 1 13.955 8.4666405 9.5715399
9392 2 13.4245005 10.5235005 7.9116502
8354 2 13.8830004 10.8626004 10.6850004
784 1 15.1922998 6.4421802 8.8088398
1781 1 11.1764002 11.1596003 9.5531302
659 1 15.4285002 8.7955704 7.5960002
5833 1 15.3915005 7.49545 11.1556997
9825 2 18.7224999 5.7820502 6.96668
9916 2 16.3791008 10.9518004 6.6903501
3037 1 15.8191004 9.75667 12.0831003
2019 1 20.1345997 8.8344403 12.5862999
2838 1 17.8705998 8.4076796 7.0181398
9709 2 17.6051007 7.13444 9.2527504
168 1 19.0963001 9.0239201 10.1697998
6834 2 17.5517998 7.8522902 12.2525997
6311 2 16.5058995 9.6960097 9.5630503
6705 2 19.0890999 10.2849999 7.9070402
9254 2 18.3722 10.6415005 11.9797002
3221 1 20.1082993 7.85425 8.2326698
6459 2 20.3820992 6.7668 10.6695996
8132 2 22.7630997 7.7242799 12.7515002
8954 2 25.4787998 6.4442702 6.84581
6995 2 24.7127991 6.05861 11.2069998
4135 1 25.2290001 9.0225401 6.99755
564 1 21.5209999 10.2793999 8.1125097
5881 1 25.0379009 7.7140198 9.1336803
4523 1 24.4053002 9.0037804 11.1691999
8578 2 22.7145996 7.90547 7.7695399
5029 1 22.7730999 7.1434999 10.1834002
2231 1 23.7175999 9.9615602 9.0263395
8349 2 21.6119004 9.5699501 10.6358996
5377 1 25.2369003 11.3273001 10.5488997
184 1 23.1429997 11.3625002 11.6327
3954 1 0.0690826 13.7030001 7.5160899
2545 1 3.46297 16.8075009 6.6061201
1023 1 0.385514 13.6625996 9.98131
2285 1 1.82919 14.1988001 12.4359999
8074 2 1.85214 11.8136997 11.0517998
8322 2 4.1099401 13.0277996 12.2685003
2155 1 2.2888999 12.7409001 8.6040297
3229 1 3.7583599 14.4612999 7.2834501
2843 1 3.0427101 14.1738997 10.3299999
1490 1 2.29913 16.3722992 11.0929003
7768 2 1.67688 15.4919005 8.4976502
1060 1 4.2242298 15.9358998 9.1560497
8194 2 5.2143798 13.2262001 8.80929
2771 1 5.4271598 15.0428 11.0137997
8254 2 9.1581097 14.9368 6.84551
7053 2 6.8662702 17.0088005 10.0085001
1657 1 8.16992 12.0904999 12.3170004
5308 1 6.4825802 12.8794004 10.8697996
8113 2 7.98029 12.4193001 7.6608701
6930 2 6.0881701 16.2089996 7.2871299
7493 2 8.1598101 14.6791001 11.4387999
2683 1 7.5687499 14.6062002 8.9888698
5624 1 8.7702103 12.2716999 10.0158005
6398 2 10.0326004 16.3558006 9.7818499
2817 1 6.3484302 16.5407009 12.7018996
1729 1 8.4887104 16.9636002 8.0124998
910 1 10.1829004 13.9446002 9.2892904
4237 1 10.3865996 15.5839005 12.4020996
5388 1 10.8778 17.0583992 7.2128101
1884 1 12.5648003 16.8787994 9.2814303
6439 2 10.7643996 12.2080002 7.3541699
9818 2 10.7606001 12.5254002 11.6047001
368 1 13.4993 12.8483 6.85112
6734 2 14.3106003 16.6928997 7.11625
4146 1 14.6132002 13.5044003 10.6616001
8044 2 12.0361004 14.9055996 7.5272103
5195 1 12.7289 12.8683996 9.1305704
2451 1 14.382 14.5972004 8.47995
6648 2 12.3480997 14.6379996 10.7508002
7571 2 14.7279997 16.3344994 10.4289999
993 1 12.6639004 16.596201 12.2357998
2714 1 13.2776003 12.4546004 12.4582997
747 1 14.3182001 14.8346005 12.6625996
4320 1 15.2572003 12.2105999 8.6981697
3600 1 20.0998993 11.5909996 10.0783005
7258 2 16.2215996 13.8375998 6.7087999
2077 1 17.9599992 12.3620005 8.7690201
5198 1 16.6616001 15.4271002 11.9704
3163 1 20.3360005 12.5705004 7.92897
4549 1 16.5865002 11.8785 10.7115002
4809 1 16.5116005 16.1849995 8.1595402
4098 1 18.6270008 15.9987002 10.3920002
9210 2 18.9346008 14.8355999 7.7340799
8736 2 16.7483006 14.3036003 9.7455702
7461 2 18.7833004 13.5232001 11.5489998
2921 1 20.3855991 14.1871004 9.8783904
6767 2 15.8288002 12.6885004 12.8246002
3565 1 20.656601 11.6609001 12.4598999
4798 1 21.7175999 14.5403004 7.9415102
4662 1 25.6133003 15.7587996 9.5977001
7389 2 22.0181999 13.5653 11.7229004
9171 2 24.3892002 14.3492003 7.92626
2241 1 24.5898991 13.6202002 10.6772003
7945 2 24.4347 15.7557001 12.2019997
4747 1 22.9699002 15.2935 10.0625
4640 1 24.8635998 11.7678004 7.8253899
8692 2 20.7966995 15.9736996 11.9495002
7691 2 21.0156002 16.8015995 9.3841601
2730 1 20.7359009 16.5447006 6.89807
9863 2 22.5855007 12.3719998 9.3248301
3063 1 22.5855999 12.5678997 6.8024502
3585 1 23.0126991 16.5149994 7.9702802
6032 2 3.2482901 3.7537601 16.2959004
8368 2 2.7762301 0.995855 16.3269005
9622 2 1.93565 3.12447 14.1363001
1871 1 1.0443 4.95252 15.7744999
2590 1 1.85025 4.6578899 18.1886005
5775 1 1.948 2.13743 18.5568009
5027 1 4.7533798 4.4380598 14.0473003
3355 1 0.655289 1.02937 14.6933003
43 1 3.84045 0.60173 18.7646008
6445 2 0.385615 2.7933901 16.7653008
7155 2 4.4174199 3.1442599 18.8855992
9673 2 2.56213 0.31712 13.092
9581 2 5.16995 1.91433 14.2367001
3526 1 5.17835 1.6769001 16.8010006
5580 1 7.7044301 1.5304101 13.7116003
6741 2 5.7887502 4.35953 16.3792
7055 2 7.6809802 2.02687 16.4592991
4653 1 9.58601 3.6917501 17.8066998
3781 1 7.09162 3.7100599 18.2847004
1520 1 7.2869702 3.61044 14.4890003
3480 1 9.6403399 2.99698 15.0015001
5644 1 6.2811699 1.34802 18.8237
4204 1 8.7021799 1.8156901 19.0186996
6746 2 9.2054396 5.38064 13.5728998
1408 1 8.39254 4.8604498 16.2094002
9273 2 10.2391005 1.1805101 13.5560999
6573 2 10.3522997 1.31966 16.9582996
2919 1 11.7340002 0.32674 18.9999008
8329 2 11.0558004 4.8274002 16.0454006
1555 1 12.0657997 3.1563101 17.5331993
2782 1 12.2879 2.4173 15.0733004
8529 2 14.2179003 3.14363 16.5562992
9156 2 14.5742998 3.5423801 13.5615998
2431 1 13.2608004 4.98279 14.9799996
5207 1 13.6037998 2.0714099 18.9603996
3403 1 11.2789002 5.2881298 18.8122998
3718 1 14.6267996 0.976439 14.9297
863 1 13.4359999 5.5115199 17.3346996
7746 2 13.1486998 0.453871 16.9029008
8727 2 11.5618 4.0064101 13.073
1874 1 15.5632 1.24825 17.5688992
268 1 15.6276999 3.6049099 18.6436005
9782 2 19.5268002 0.423793 16.5699997
6620 2 16.6508999 1.49086 13.4131003
7376 2 17.7122994 2.64307 17.5095997
2854 1 18.6630001 2.35236 15.0073996
9791 2 18.8022995 4.7451301 15.9631996
4963 1 16.3661003 3.00175 15.4216004
5459 1 17.0685005 0.628317 15.856
212 1 17.5510998 5.2332201 17.9627992
9153 2 19.8229008 4.4371801 18.9155006
8855 2 17.6987 4.2332201 13.3127003
907 1 20.2961998 2.93292 16.6107006
505 1 19.4810009 1.8264101 19.1574993
2815 1 20.5298996 3.95644 14.2216997
6160 2 15.7797003 5.4166002 15.9993
707 1 18.6439991 0.0716838 14.0732002
3342 1 20.9134008 1.4449101 14.6195002
289 1 25.2646999 4.1252499 16.2117005
2660 1 21.4151993 5.1708498 17.1404991
8078 2 23.6942997 4.5776501 18.4442005
9223 2 22.6322003 3.49907 15.6084004
9957 2 24.5800991 1.8476502 17.2087994
9808 2 21.8384991 2.1416299 18.2975006
9170 2 24.9943008 2.29109 14.2252998
6480 2 24.4596005 5.45366 14.0747004
4515 1 25.7644005 0.916872 19.0998993
8695 2 22.2493 0.0685882 16.3798008
2687 1 3.95277 5.87361 17.5697994
3231 1 0.301088 8.9804402 15.7771998
3737 1 2.92293 6.00841 14.9062996
5038 1 2.37517 9.5757704 17.6373997
8661 2 1.62509 7.072 17.1107998
2766 1 2.6110401 8.5292998 15.1753998
1022 1 2.13413 10.8904 15.5761996
7973 2 0.764697 7.0240798 13.7173004
8097 2 3.5234001 10.4748001 13.3104
8345 2 4.5660801 9.8734304 16.3033009
8539 2 4.9210902 7.2124 15.4991999
1122 1 1.28426 9.61617 13.2889004
4867 1 4.3473201 10.2028999 19.0452003
3050 1 3.30689 7.8923302 13.0387001
2976 1 5.0748601 8.0553999 18.0219002
238 1 0.674218 8.9506502 19.3015995
9768 2 0.0601793 10.8497 17.6551991
458 1 6.8695798 5.8842502 14.5535002
5984 1 5.5457101 9.0884199 13.9815998
1391 1 9.4350405 6.2663698 17.9065
6757 2 7.1925001 6.7616 17.3360005
9661 2 7.7466998 8.1986399 14.6552
5056 1 7.0050802 9.2583304 16.6970997
3201 1 9.7998896 10.7251997 13.6152001
5792 1 9.1029501 8.6922703 18.2050991
8433 2 7.4250498 11.1134005 14.7234001
3688 1 9.59095 6.96032 15.6252003
9951 2 10.0811005 9.4641304 15.9982996
8055 2 6.86894 9.7488499 19.1688995
9805 2 8.5539599 11.3427 17.8516006
8843 2 11.7650004 7.4270001 17.0158997
4683 1 11.9672004 9.1022501 14.3031998
6410 2 14.3442001 10.5244999 14.0032997
251 1 11.5698004 6.6192398 14.1378002
6868 2 13.8364001 7.4671798 14.9512998
269 1 14.5426998 7.7849999 17.3218002
2959 1 12.9537002 9.7180701 16.4433995
1547 1 11.4555998 9.3237696 18.6387005
8236 2 13.9389 9.8646002 18.9389992
5875 1 13.0333996 7.2129998 19.2775002
9097 2 15.5571003 6.2383199 18.9792004
5021 1 15.5497999 6.1195698 13.4178
7652 2 15.6864004 9.7950402 16.3488007
534 1 16.0209007 8.31987 14.2646999
2494 1 17.6424008 6.4850502 14.5340004
4115 1 18.6301995 8.6726504 14.6274004
9799 2 17.5779 7.7217999 16.8348999
2359 1 17.0862999 10.5312996 14.1141005
9896 2 19.9703008 10.6681996 14.5986004
843 1 19.8922006 7.1338701 18.2637997
4037 1 19.8586006 6.87735 15.9136
3796 1 19.9386006 9.2162199 16.7740002
2974 1 18.0597 10.7409001 16.4407006
5581 1 16.2301006 8.8478004 18.8430004
6824 2 18.632 9.5557003 18.9291992
9722 2 19.9125004 6.4106598 13.4123001
5135 1 16.3194008 11.4285002 18.1947994
2939 1 21.9860002 6.0257001 14.9090004
1928 1 23.9575996 6.15871 16.4295006
2072 1 21.2737007 8.37292 14.8025999
6953 2 23.8766004 8.6356201 15.3505001
8749 2 22.0324001 7.64148 17.1688004
3506 1 22.0559998 10.3950997 16.0827999
3490 1 23.4815007 9.52701 17.865101
9118 2 24.5361996 7.4073701 18.5779991
2173 1 21.2383003 9.2970104 18.9153996
6596 2 24.5613003 10.6682997 13.5426998
828 1 25.3663998 8.1427603 13.3052998
794 1 22.1671009 10.0780001 13.4345999
1447 1 24.5524998 11.1557999 16.4617005
6305 2 25.6748009 10.3499003 18.8904
8612 2 3.42149 12.1094999 17.5118008
6997 2 2.89989 13.6709004 15.0592003
866 1 3.2708299 14.7356005 18.0688
3722 1 1.4483301 13.1218996 18.4974003
6516 2 1.1081801 15.2391997 16.6569004
2502 1 1.5574 16.1070004 14.1596003
7307 2 3.6080699 16.4785004 16.1693993
1203 1 1.56708 12.1837997 13.7103997
5303 1 0.553502 12.8186999 16.1336002
8358 2 3.9224 15.7320996 13.1723003
1015 1 4.8614102 11.9867002 14.8654004
4966 1 1.41116 15.8766004 19.1548996
1244 1 6.17904 11.6372996 16.9652996
6852 2 5.4091301 14.0262003 16.6611004
7550 2 5.4841199 15.7347002 18.8999996
793 1 9.7244797 11.9634 15.8163004
9650 2 6.3670998 13.7907 13.5644999
418 1 5.9298602 16.0289001 15.1246996
1526 1 7.6644902 13.4628001 15.8781004
3335 1 7.6181999 15.8212996 17.0744
7471 2 8.2853098 15.8308001 14.3445997
9989 2 9.5864697 13.4821997 13.9398004
6889 2 7.6627698 13.8339005 18.6889
9899 2 9.8080101 14.1893997 16.9025994
7437 2 10.1309996 15.5191002 19.2292996
1973 1 5.7072101 12.3690004 19.1009007
7884 2 11.4412003 11.5909996 17.7509995
8300 2 11.9284 11.6890002 14.5777998
3497 1 10.7202997 15.5656004 14.9553004
6473 2 13.9174996 12.1201 16.8978004
3289 1 14.0688 13.3554001 14.6527004
7130 2 13.1324997 16.0317001 14.6820002
4685 1 12.0904999 13.7977 15.9629002
7402 2 13.9821998 15.0892 17.1576004
3380 1 11.7886 16.0933991 17.1480999
3147 1 12.1697998 13.8655996 18.4598007
5518 1 12.0460997 14.1587 13.4498997
1330 1 15.0015001 17.0503998 15.8683996
1035 1 15.8002997 13.7333002 17.7143994
2116 1 16.1235008 12.2656002 15.6444998
9347 2 16.1828995 14.8723002 14.8981
8022 2 18.0461998 13.1983996 17.2189007
8846 2 18.2525005 12.8753996 14.2447996
7451 2 16.9403992 16.0646 17.6858998
5834 1 18.8036995 15.1169996 15.8374996
4446 1 19.5147 16.3714008 18.0356007
953 1 18.4722996 15.5559998 13.4371996
5840 1 19.6067009 14.0677004 18.8918992
3691 1 20.1536999 12.8407002 15.8707
5838 1 20.3869991 14.0510998 13.7793999
7391 2 20.434 16.6767998 14.5794001
8051 2 20.6616001 11.6153002 17.8498994
6618 2 21.1606999 14.8844996 16.7269001
475 1 23.2500992 15.4229002 17.8673992
996 1 22.8236008 12.8688002 16.9624996
9730 2 22.4123001 12.4673996 14.5115996
6827 2 24.2187004 14.6794005 15.5419998
6696 2 25.0832996 13.5991001 18.2092991
2266 1 22.7789002 16.8024006 15.9509002
642 1 25.4067993 16.0718994 17.2497997
3891 1 22.4738999 15.1552 13.9307004
2180 1 25.0916996 16.9375992 14.7926998
5373 1 21.9929008 13.6330996 19.1804009
3124 1 25.6084996 12.7477999 14.9890004
2903 1 24.2180996 13.3832998 13.0771999
7422 2 23.2859001 11.5683003 19.2716999
944 1 0.176741 3.3492601 22.5081997
9163 2 0.174268 3.6916299 19.7523995
8498 2 4.2434001 3.68065 25.4237004
8311 2 0.684398 4.84791 24.7821007
6525 2 1.31997 1.46873 23.6933995
7354 2 2.4807201 2.61551 21.030899
4045 1 4.04214 1.88486 23.6413002
1768 1 2.46824 3.6866601 23.4559994
2425 1 3.0762701 5.0795202 20.0345001
9932 2 4.7469402 4.21102 22.1884003
8489 2 4.7318001 0.951615 21.2108002
9436 2 1.64842 5.6297403 21.9587002
5680 1 8.7981797 4.81391 25.3334007
6455 2 8.5496798 4.87607 19.9051
5335 1 6.6690302 3.39463 24.7448998
1659 1 6.3023 2.2058799 22.7703991
1390 1 6.5567899 3.2092099 20.5722008
1769 1 8.3868799 1.7397 23.6961003
1431 1 8.9424296 2.7823501 21.4092007
7529 2 7.6071601 0.790581 20.9720002
8545 2 8.0280104 4.4407301 22.9622002
6576 2 6.0571098 0.944184 25.3246002
4510 1 10.2954998 0.744408 21.0983009
2658 1 10.2831001 0.830713 24.9596996
9233 2 5.5897198 5.7474599 19.5582009
1811 1 10.6001997 5.3664899 23.6821995
6722 2 13.3951998 4.4815102 19.5877991
9475 2 11.0038996 2.7630701 19.7949009
2837 1 10.8891002 3.4028201 25.4454003
4253 1 10.7047005 4.7449899 21.2931004
3516 1 12.5700999 1.69335 25.1474991
7153 2 10.8697004 2.57985 23.0426998
1024 1 12.8851996 3.6507499 21.8110008
2914 1 12.6419001 1.3327 21.0955009
3313 1 13.8097 1.92484 23.2157002
7620 2 13.0248003 4.3373799 24.2052994
2620 1 14.9892998 5.1963201 21.3885002
8526 2 15.0614996 2.3376501 21.0575008
3025 1 14.9348002 2.62781 25.4043999
2517 1 11.9309998 0.108295 23.0897999
6836 2 19.1208 0.0592117 20.9013004
6448 2 15.8458996 3.85193 23.3661003
833 1 16.9985008 1.54175 19.6397
3322 1 19.2896996 0.964375 23.3675995
8100 2 16.1431999 0.813787 23.8141003
7184 2 17.4048996 4.0297699 20.4235001
618 1 18.3337002 4.1942101 22.8118
9955 2 18.1902008 2.76121 24.8395004
6643 2 19.9836998 2.90731 21.5576992
1560 1 17.4992008 1.97676 22.0559006
8116 2 20.0191994 5.211 24.3567009
3305 1 17.5566006 5.5725498 24.6849995
3191 1 19.6597996 5.7393699 21.5172005
4154 1 18.1096001 0.084307 25.2021008
398 1 20.8661996 2.73631 23.9685002
6057 2 24.2619991 0.274481 21.2268009
1988 1 24.1952 0.468562 23.5508003
718 1 23.8910008 2.36971 19.7973995
2927 1 21.7651005 4.8124399 22.5335007
3784 1 21.9379998 3.7561801 20.2744007
1889 1 24.1203003 4.5523401 21.0897007
8500 2 23.0056 2.6456499 22.4930001
3325 1 21.7234001 1.09139 20.5515995
1631 1 22.8684006 1.61066 25.1569996
6879 2 25.1655998 3.1092801 24.3544006
6396 2 22.4407997 4.0357699 25.5935002
8001 2 21.6212998 0.148662 22.9430008
7626 2 23.7861996 5.73421 23.7320996
657 1 3.15748 5.8532902 24.2243996
6760 2 0.216059 9.28934 24.0848999
5877 1 1.3221901 7.16152 25.5041008
9458 2 3.07462 7.6244402 19.5704003
1216 1 0.566964 6.4232703 19.6973
2591 1 3.6171401 9.1681204 21.3535996
6881 2 2.70963 8.2217503 23.6797009
5551 1 1.39396 8.2097998 21.5037995
680 1 4.0556998 6.6849199 21.8437004
2533 1 1.94854 10.5403996 22.5779991
7883 2 2.08408 10.9477998 20.1240997
249 1 4.2497501 10.4176998 23.3281002
3928 1 4.1238599 9.3212996 25.4941998
6064 2 2.6500199 11.4045 24.856701
5319 1 5.5646601 5.78124 24.0149994
9324 2 5.4917798 10.9652004 21.3047009
10000 2 5.9622402 10.8884002 25.2367993
4287 1 6.6771002 6.3095899 21.7903996
7281 2 5.57511 8.2881603 23.2567005
3793 1 7.86405 7.3357301 19.8278008
1699 1 5.5995999 8.16541 20.5291996
2084 1 7.7806001 6.7746401 24.0603008
133 1 9.1714697 6.5137701 22.0389004
7261 2 8.0699902 8.8280897 22.0209007
1299 1 7.83568 9.4538403 24.5186005
1234 1 9.8681202 10.1962004 23.5195008
9186 2 9.8527098 7.8102002 24.8293991
8361 2 9.9557896 10.3076 20.6303005
61 1 6.3320098 7.95437 25.6254006
6141 2 10.4572001 7.4068699 20.0720997
5439 1 14.8304005 6.4499698 23.7108994
2675 1 10.9516002 8.2034397 22.6002999
2783 1 12.2992001 6.9903302 24.4507008
1029 1 12.4727001 8.9856396 20.8885994
1332 1 11.9754 10.4931002 22.6303005
6360 2 12.6369 6.3201199 21.9405004
3329 1 11.9948998 9.4557896 24.9169998
3543 1 13.5284996 8.6050596 23.1364002
3866 1 14.2152996 10.6188002 21.6343003
6545 2 14.8777 8.0068903 21.0228996
7358 2 14.0761995 11.0879002 24.1959992
8150 2 14.5148001 8.13307 25.6597004
3108 1 16.4223995 10.5607996 25.3540993
9601 2 18.2233009 6.84688 19.8383999
9524 2 16.1187992 9.2539702 23.1830006
2460 1 16.8882008 7.8221102 24.9818002
7107 2 16.9557 6.3308501 22.3458996
981 1 17.3537998 8.6225596 21.1047993
8570 2 18.9008008 8.0386801 23.3136997
4808 1 18.6571007 10.4221001 21.7765999
8364 2 18.8827992 10.8157997 24.2374001
5772 1 20.0571995 8.3860397 20.8225003
9893 2 16.4263993 11.0176001 20.6343003
4465 1 20.5783005 8.9112902 24.9771996
4555 1 25.7180996 8.3851099 20.5445996
2582 1 20.9312 9.88027 22.7133999
8917 2 21.7896004 6.3768001 19.9286004
735 1 24.6811009 7.6704002 25.2891998
3901 1 21.8507996 6.8670202 25.1602001
6347 2 21.4731007 7.33673 22.6763001
7239 2 23.0100994 9.1013498 20.7003002
1302 1 23.8519994 6.8557 21.3876991
7434 2 23.1909008 9.1310501 23.7329006
2848 1 25.2572994 10.1845999 24.6935005
7866 2 25.3757992 10.6583996 21.8719998
6411 2 22.0685997 11.2025003 24.9575006
4950 1 22.8258991 11.368 22.0977993
6831 2 25.5830002 7.8572898 23.0268002
6357 2 20.7362995 11.4352999 20.6284008
6619 2 0.302039 12.6289997 22.6800003
6581 2 0.460421 15.7676001 25.5074005
8943 2 4.3522802 13.7771998 25.4381008
335 1 1.6256401 13.7289 24.5858002
2742 1 2.8970102 16.0781994 24.9552002
320 1 1.22567 13.8865996 20.7112007
5395 1 3.6521001 13.1162005 19.9417992
2262 1 1.93779 15.2377005 22.8176003
7347 2 3.1522999 12.8662996 22.4027004
7242 2 3.3563099 15.6107998 20.8444004
961 1 4.5828901 14.9812002 23.2215996
1236 1 5.3992801 12.5565005 23.4055004
2811 1 10.0908003 12.8800002 19.5454006
7056 2 5.4686599 16.8770008 24.8712998
6384 2 7.9779702 11.8125 22.9801006
209 1 7.9010302 11.9231006 20.4332009
9671 2 8.0124702 16.3787995 23.0487003
979 1 7.5622802 16.0862999 20.1938
8914 2 5.9842402 13.9699002 21.2765007
8200 2 6.9985 14.1574001 24.3612995
7489 2 8.8506404 14.2284002 21.5345001
1534 1 9.5955296 14.0473003 24.1427994
4408 1 5.6765499 16.6499005 21.7474995
277 1 8.4656801 11.8884002 25.4561005
606 1 7.8533502 16.3530998 25.5564003
2016 1 9.5899802 17.0088005 21.0562
437 1 12.1680002 11.5144997 20.3209
6446 2 10.3796997 16.4794007 25.2187004
5508 1 10.5081997 12.3452997 22.1774998
4357 1 12.8783998 15.9518996 19.5333004
6293 2 14.2222004 12.7834997 19.6872998
1541 1 10.7233 15.7889004 22.7667008
9136 2 11.0650997 12.0404997 24.7576008
4005 1 13.0225 12.6472998 22.5867005
2732 1 14.8170996 13.5361996 24.7787991
2205 1 13.6183996 15.9236002 22.125
9507 2 11.9041996 14.2149 21.0704994
9706 2 12.4909001 14.6051998 24.2432003
7433 2 14.8732004 16.1443005 24.3633003
9191 2 15.3009997 13.7171002 22.2555008
8942 2 15.2594004 15.5289002 20.0526009
3300 1 18.5028 11.9441004 19.4004994
1469 1 16.4426003 11.6735001 23.1511993
1058 1 16.9799004 13.7145005 19.7514
9445 2 17.3526993 13.5187998 24.5760002