 Position data for CuZr system
        5000 atoms
 2      atom types
  8.15004036E-02   43.087601     xlo xhi
  9.92330983E-02   43.091400     ylo yhi
  8.23950991E-02   43.086201     zlo zhi

 Atoms

           1           1   20.733143       9.7100086       20.398062    
           2           1   23.222694       19.629480       18.253729    
           3           1   13.350864       11.385345       27.780891    
           4           1   17.633112       17.817030       25.558868    
           5           1   12.100635       28.680622       21.796217    
           6           1   5.1921601       4.9734373       16.523632    
           7           1   6.9185858       34.972534       27.570421    
           8           1   13.818788       37.871086       36.563416    
           9           1   2.7377491       18.963844       29.270426    
          10           1   38.500046       29.686487       19.204296    
          11           1   32.782001       16.233807       9.5351810    
          12           1   14.324669       29.700853       30.896074    
          13           1   25.540169       17.127607       42.792889    
          14           1   40.312099       42.130230       2.8031571    
          15           1   27.701612       25.227489       20.859119    
          16           1   3.3944523       6.5764537       1.8930578    
          17           1   42.524551       42.324505       13.179183    
          18           1   37.919094       7.9274807       19.787569    
          19           1   20.426407       41.297195       21.486341    
          20           1   4.1862097       13.118132       31.699028    
          21           1   14.328416       38.427689       10.988517    
          22           1   10.484442       15.617592       33.810322    
          23           1   38.564796       12.138107       40.994133    
          24           1   38.445805       5.1530228       34.952057    
          25           1  0.69333148       31.533859       28.939903    
          26           1   18.021351       22.671278       23.802113    
          27           1   12.998322       39.811096       7.1645031    
          28           1   8.5701427       38.067341       8.9283514    
          29           1   35.430458       14.009462       17.234863    
          30           1   9.9856281       18.573402      0.80244368    
          31           1   16.716635       11.287572       25.266537    
          32           1   37.565060       14.318183       2.0176921    
          33           1   1.6386024       13.126627       27.087606    
          34           1   13.178864       23.203745       38.450214    
          35           1   7.6713514       31.894653       24.936184    
          36           1   30.914734       33.099758       17.603596    
          37           1  0.10247334       38.357231       34.123554    
          38           1   39.781387       36.104874       29.335743    
          39           1   40.029667       20.941881       25.587938    
          40           1   19.632915       23.209232       40.529755    
          41           1   33.692120       12.269898       25.504519    
          42           1   42.629524       29.641874       27.525188    
          43           1   15.913568       31.713957       25.940632    
          44           1   29.358925       27.974482       5.7535768    
          45           1   32.406811       41.909115       2.7599144    
          46           1   7.7983298       34.886032       21.823669    
          47           1   11.402393       38.647285       32.168339    
          48           1   30.623865       28.261559      0.79976285    
          49           1  0.49742863       42.953609       32.500149    
          50           1   18.945299       2.1602740       6.8091226    
          51           1   25.849588       2.8739262       6.2736287    
          52           1   38.288094       37.632217       37.187595    
          53           1   17.658533       34.873291       11.431457    
          54           1   22.868719       38.884678       5.5305758    
          55           1   5.7918525       40.159637       21.935436    
          56           1   34.790291       16.221947      0.37890881    
          57           1   42.139416       17.899361       41.115128    
          58           1   27.730616       9.3956747       26.658173    
          59           1   27.412188       36.892643       9.8344622    
          60           1   4.1626630       39.304756       20.085459    
          61           1   4.6271553       6.9311953       23.517172    
          62           1   37.849739       35.947887       12.020493    
          63           1   16.018181       10.834644       40.329948    
          64           1   19.964975       16.650723       17.509382    
          65           1   25.245255       28.748302       26.231194    
          66           1   21.042742       41.490971       1.3740611    
          67           1   34.777287       35.159058       26.547581    
          68           1   23.883236       39.191113       27.767754    
          69           1   24.279846       14.188777       3.3403866    
          70           1   18.101542       3.7415419       28.627182    
          71           1   11.572358       32.866554       22.587175    
          72           1   24.650017       35.801750       34.745983    
          73           1   15.084307       25.028118       35.071980    
          74           1   6.8534498       17.312927       4.9535060    
          75           1   9.2335501       42.807201       14.351705    
          76           1   30.215384       24.695568       22.286724    
          77           1   21.654085       2.9897325       15.065361    
          78           1   39.666111       18.920902       7.7798634    
          79           1   20.921627       24.841465       21.583752    
          80           1   2.0237653       35.502769       25.288046    
          81           1   23.337790       2.4052432       5.6492476    
          82           1   15.776551       2.1378989       5.2877679    
          83           1   21.495661       35.035061       42.646450    
          84           1   31.310175       18.467684       20.304035    
          85           1   38.611904       24.331995       28.774813    
          86           1   32.197937       7.2670212       37.955971    
          87           1   3.8219781       15.446891       43.082680    
          88           1   26.164377       8.3917456       18.870628    
          89           1   26.187576       16.553593       10.507122    
          90           1   19.717070       32.097462       27.858622    
          91           1   29.232401       11.539824       27.292870    
          92           1   24.177670       20.702702       11.081576    
          93           1   27.085432       24.365179       7.8378062    
          94           1   8.0133762       13.864987       1.4395025    
          95           1   26.306152       18.312704       21.951977    
          96           1   29.160969       13.148033       29.272331    
          97           1   15.456470       36.919937       19.739447    
          98           1   2.2831120       13.754136       33.104145    
          99           1   23.510939       18.935604       12.858953    
         100           1   6.9434242       35.866840       9.6028128    
         101           1   12.679582       33.522118       29.183334    
         102           1   8.4755564       4.2746396       13.742481    
         103           1   9.9885130       39.592876       23.564749    
         104           1   13.236083       37.513557       5.8291674    
         105           1   34.580235       24.153542       21.394882    
         106           1   16.473541       39.696686       3.3184409    
         107           1   28.666168       33.451408       18.997343    
         108           1   17.190693       19.038359       20.161392    
         109           1   27.839188       10.314304       36.517139    
         110           1   41.379555       19.040640       39.010281    
         111           1   21.483677       25.718426       10.708144    
         112           1   39.073734       18.363321       33.135780    
         113           1   26.840696       39.370781       38.785397    
         114           1   29.654572       16.056988       6.5197291    
         115           1   42.652855       9.6682806       24.538504    
         116           1   42.146801       16.779354       32.753136    
         117           1   1.9233379       30.708597       26.945494    
         118           1   20.454512       29.704391       3.9602649    
         119           1   21.616026       26.341606       40.256607    
         120           1   42.616482       34.359447       10.008892    
         121           1   31.815031       26.252981       32.119072    
         122           1   4.4130168       14.642624       8.0401316    
         123           1   28.342228       16.490705       38.507610    
         124           1   15.975372       34.616238       40.602245    
         125           1  0.40589049       37.568920       41.753822    
         126           1   24.233814       12.123853       1.7835957    
         127           1   16.283163       42.072144       23.945515    
         128           1   35.555298       4.4147286       16.366302    
         129           1   36.990757       4.3649411       4.6206536    
         130           1   25.396646       14.403545       23.468912    
         131           1   33.198204       37.430210       38.201767    
         132           1   1.8716979       23.600807       1.9347982    
         133           1   23.148785       6.7942266       13.918280    
         134           1   32.074093       26.044785       11.332764    
         135           1   16.259781       33.898548       37.335976    
         136           1   35.757866       31.944754       10.784890    
         137           1   11.732620       26.392794       29.573910    
         138           1   27.151527       11.758052       8.5646782    
         139           1   27.172203       14.147143       15.254603    
         140           1   28.405231       37.326942       38.734158    
         141           1   2.6113799       25.151459       35.264202    
         142           1   41.613453       38.549767       1.5198845    
         143           1   37.037895       9.1266737       8.9066544    
         144           1   26.581621       3.8408749       37.328499    
         145           1   4.7894535       1.9616246       42.861790    
         146           1   25.270895       12.641998       28.627501    
         147           1   29.544554       31.538700       8.1484394    
         148           1   40.611336       16.359364       39.708496    
         149           1   12.910983       8.5267372       18.978134    
         150           1   35.715958       38.448654       31.269796    
         151           1   22.508799       36.754223       1.5706550    
         152           1   22.904955       20.627796       8.8940296    
         153           1   35.224773       24.929321       41.472755    
         154           1   4.9613333       30.482435       38.096611    
         155           1   12.785572       7.0957398       1.5215141    
         156           1   25.417341       3.5063031       21.659607    
         157           1   7.1204185       37.104412       33.470715    
         158           1   6.8685055       1.0174428      0.62750596    
         159           1   5.3672614       9.4806690       37.191078    
         160           1   11.952621       12.321939      9.20257568E-02
         161           1   19.414801       39.535942       37.763561    
         162           1   34.953239       1.6005155       29.192938    
         163           1   9.6904106       15.772864       7.9390392    
         164           1   36.990017       5.5821857       39.367542    
         165           1   13.525444       11.872908       21.569767    
         166           1   37.850742       2.3320541       6.1136217    
         167           1   30.210760       1.2467782       22.888859    
         168           1   19.156210       34.320610       32.746632    
         169           1   27.041740       7.7624803       5.9915938    
         170           1   16.994232       15.069138       34.164726    
         171           1   41.651184       31.489050       1.1753229    
         172           1   18.156029       26.888391       15.168245    
         173           1   43.019196       7.7031016       37.147129    
         174           1   24.993719       9.7975512       33.094383    
         175           1   17.852219       5.9257846       31.863306    
         176           1   19.350533       3.9927266       4.5958481    
         177           1   34.958267       29.067610       10.066607    
         178           1   19.250540       20.863579       40.407799    
         179           1   9.2657175       39.697559      0.92783225    
         180           1   27.898062       30.251526       9.5239973    
         181           1   25.293968       25.334240       41.933987    
         182           1   17.402218       21.182278      0.75314564    
         183           1   23.779398       4.9265614       5.9712362    
         184           1   41.360294       25.615658       36.043324    
         185           1   3.7222261       40.466347       34.119499    
         186           1   30.901316       26.592566       24.092161    
         187           1   22.618954       13.614350       8.8219547    
         188           1   7.0973873       42.643673       30.829212    
         189           1   34.593914       1.3877001       22.038004    
         190           1   32.953323       23.737251       26.702309    
         191           1   19.043768       9.9999161       11.581377    
         192           1   8.8235397       11.494268       16.956394    
         193           1   32.209511       1.2915608       13.217161    
         194           1   25.877243       22.333054       6.7629366    
         195           1   7.1744757       27.240047       39.928524    
         196           1   3.7930586       17.423695       31.370449    
         197           1  0.91697776       7.6572771       9.9593401    
         198           1   5.4772906       30.993280       4.1902666    
         199           1   42.863907       42.016632       36.638023    
         200           1   11.987721       26.850613       41.726757    
         201           1   25.236652       9.5269127       20.940962    
         202           1   40.288963      0.31776267       24.229828    
         203           1   41.449879       36.206169      0.29245919    
         204           1   20.538279       37.793468       36.177868    
         205           1   18.716803       7.4404664       15.918571    
         206           1   30.133503       31.074137       24.262712    
         207           1   17.227444       1.5139112       27.716166    
         208           1   37.420418       15.601278       16.982136    
         209           1   26.022993       21.085260       27.276527    
         210           1  0.16624528       15.167869       26.082151    
         211           1   30.867588       41.310280       13.187434    
         212           1   9.6572332       31.272898       5.8949165    
         213           1   8.7226477       20.929710       39.455242    
         214           1   16.261349       26.830669       33.897278    
         215           1   1.9920119       2.7064576       5.8766675    
         216           1   14.675585       22.535494       34.404491    
         217           1   7.1943111       8.1585827       7.7370539    
         218           1   24.026217       16.380667       2.0658882    
         219           1   10.200573       33.314564       41.736874    
         220           1   37.248943       31.931194       6.8448148    
         221           1   38.233932      0.77732527       27.785553    
         222           1   11.579315       16.751257       1.0882781    
         223           1   32.837292       15.919085       41.493576    
         224           1   24.744621       40.372917       10.306500    
         225           1   21.623459       30.311075       24.556452    
         226           1   10.121160       3.3897262       21.180023    
         227           1   15.098758       2.6793098       36.275124    
         228           1   40.753841       27.379959       30.735075    
         229           1   37.916992       33.454582      0.12134763    
         230           1   15.519292       32.883812      0.74367762    
         231           1   30.013206       9.1573925       27.319885    
         232           1   18.069944       26.926075       8.2372894    
         233           1   11.150033       39.137238       5.6122446    
         234           1   8.0905275       13.543755       30.329529    
         235           1   2.6634061       25.991966       38.155266    
         236           1   19.582808       26.180962       37.144901    
         237           1   35.723667       13.619709       4.3234043    
         238           1   11.162156       42.741451       37.673023    
         239           1   38.355461       37.864742       7.9859943    
         240           1   4.6765323       29.943932       6.9079514    
         241           1   29.234550       13.434330       41.099125    
         242           1   23.196968       41.945858       9.0404730    
         243           1   32.946308       18.094198       16.304995    
         244           1   12.215805       10.972265       19.667109    
         245           1   36.625542       3.6559227       14.105726    
         246           1   32.139362       16.344906       7.0355039    
         247           1   25.100811       1.5181439       12.083408    
         248           1   17.085476       5.1858754       15.265906    
         249           1   6.5918822       1.9927113       22.720518    
         250           1   23.889641       24.750830       28.961685    
         251           1   19.702358       14.236122       40.052677    
         252           1   12.023079       28.722906       30.426813    
         253           1   25.012856       1.7099921       28.108084    
         254           1   28.994287       27.179888       25.518663    
         255           1   38.716801       20.751266       23.470501    
         256           1   17.073162       5.1214166       34.008987    
         257           1   22.882374       13.961639       34.276676    
         258           1   37.772224       37.182762       15.585758    
         259           1   38.553638       22.769670       32.445889    
         260           1   31.777491       34.471619       13.151905    
         261           1   23.676775       27.434877       7.2065578    
         262           1   37.051601       42.575058       41.366421    
         263           1   40.090828       9.6868629       1.6826483    
         264           1   42.765385       17.867270       4.9653029    
         265           1   2.1208596       29.764456       22.677727    
         266           1   25.560764       42.681229       29.722172    
         267           1   28.681297       32.814259       6.0281820    
         268           1   35.459133       37.465759       25.979866    
         269           1   34.076389       11.830416       21.036112    
         270           1   11.908898       1.6873375       7.1838398    
         271           1   12.603490       16.743732       22.585381    
         272           1   37.659981       35.203495       29.465452    
         273           1   18.988091       20.775732       2.7593513    
         274           1   11.675599       20.438955       19.364323    
         275           1   3.2341251       15.405098       5.5146956    
         276           1   3.0632999       41.116917       28.809481    
         277           1   38.171001       23.541269       8.7119436    
         278           1   42.781582       10.738106       40.265476    
         279           1   2.3181024       17.180838       1.3021201    
         280           1   36.167194       8.1487131       22.735706    
         281           1   40.029789       33.707874       9.5063639    
         282           1   28.494301       2.9556684       7.4402852    
         283           1   1.9647404       24.831017       19.668865    
         284           1   14.386256       32.710796       5.9844761    
         285           1   30.458141       17.362804       42.223236    
         286           1   13.076821       38.459229       42.412361    
         287           1   37.509586       22.899906       13.860775    
         288           1  0.49333134       9.7697906       15.882822    
         289           1   7.3507719       25.553305       15.991619    
         290           1   19.563541       18.586548       35.286598    
         291           1   16.456406       40.494659       17.795895    
         292           1   17.793226       31.012222       17.412632    
         293           1   4.9650841       27.781944       11.669847    
         294           1   39.555477       8.0483999       11.184638    
         295           1   29.454710       34.975990       13.976076    
         296           1   20.351074       25.027952       42.111427    
         297           1   20.812029       1.9154661       4.9892750    
         298           1   8.1900091       29.203405       28.496256    
         299           1   22.235813       37.825817       16.152481    
         300           1   38.652054       32.333229       4.7766566    
         301           1   2.3781416       27.560932       36.165974    
         302           1   4.2337265       32.712505       39.102245    
         303           1   9.3180752       13.573555       32.685982    
         304           1   42.326683       5.6146293       23.761982    
         305           1   22.799278       1.9454888       3.1932971    
         306           1   18.952309       17.100849       42.680439    
         307           1   4.5467486       42.827568       30.145378    
         308           1   9.6760330       14.080678       5.9900937    
         309           1   20.054579       21.822124       29.139994    
         310           1   35.983891       30.064404       40.664646    
         311           1   17.812656       6.1215420       4.2459583    
         312           1   13.773811       30.197315       7.0209742    
         313           1   22.065191       26.507116       28.444382    
         314           1   33.951767       33.753258       41.618279    
         315           1   13.870044       28.645279       15.645572    
         316           1   24.778168       13.198347       18.706148    
         317           1   26.692326       10.083693       24.419020    
         318           1   41.111515       39.572498       3.6834023    
         319           1   39.105675       9.7183247       26.096775    
         320           1   23.392788       27.911865       19.396593    
         321           1   26.697678       22.479059       20.539093    
         322           1   10.923794       31.345575       18.648209    
         323           1   9.2615490       23.252483       6.5928626    
         324           1   34.062023       40.140202       2.1254337    
         325           1   34.769970       30.390028       36.149776    
         326           1   1.9506332       36.464230       10.762821    
         327           1   37.186562       30.879456       35.377609    
         328           1   29.844900       5.5759077       30.195871    
         329           1   8.8189449       7.1479721       17.491543    
         330           1   11.168438       34.558117       9.2439699    
         331           1   5.5853510       26.013458       41.608440    
         332           1   39.409420       5.8148799       20.001087    
         333           1   13.251774       41.535442       33.230167    
         334           1   28.070068       16.792566       1.1257668    
         335           1   30.367279       7.3298564       40.268261    
         336           1   16.308628       28.098022       1.8240664    
         337           1  0.96433210       2.9206905       29.278229    
         338           1   37.319344       18.160070       16.595667    
         339           1   17.208124       9.5425205       19.323317    
         340           1   8.2533941       32.269711       34.792973    
         341           1  0.93513840       25.882490       40.032146    
         342           1   35.925686       41.187336       38.882095    
         343           1   16.695518       2.4991488       34.317566    
         344           1   28.365816       36.874100       12.770545    
         345           1   35.885586       29.660582       28.136909    
         346           1   21.682875       8.0814877       3.4085732    
         347           1   5.9443865       36.018948       23.471031    
         348           1   23.050951       42.631714       24.980930    
         349           1   2.1044261       24.631365       30.042631    
         350           1   6.5172615       19.080532       16.626694    
         351           1   31.208647       20.955427       12.404337    
         352           1   2.4115603       1.3135934       39.541485    
         353           1   42.204018       5.8749471       19.180885    
         354           1   41.223320       5.7417350       41.145939    
         355           1   11.354450       15.138039       27.014206    
         356           1   25.856804       41.030869       34.149410    
         357           1   12.326219       14.194588       13.053224    
         358           1   30.904106       6.7043362       27.872435    
         359           1   16.065117       30.893248       5.4703326    
         360           1   26.039478       6.0325952       35.928963    
         361           1   16.545641       7.7283678       30.778097    
         362           1   10.691808       4.7695422       23.082537    
         363           1   34.908352       16.532442       34.593117    
         364           1   38.259296       41.437256       12.109972    
         365           1   2.8937237       38.452389       1.7157315    
         366           1   36.874485       31.427437       22.760643    
         367           1   37.550346       16.216846       26.785240    
         368           1   15.652863       25.487114       27.202351    
         369           1   3.5003469       25.043215       40.248268    
         370           1   22.743505       14.107018       19.898123    
         371           1   7.5690217       20.699024       24.165737    
         372           1   33.479397       24.235785       38.859581    
         373           1   9.6995182       18.956154       4.9628296    
         374           1   23.934566       29.335562       28.261988    
         375           1   38.675964       43.031067       7.5818439    
         376           1   15.549614       19.550018       18.092564    
         377           1   2.8098559       18.055387       9.2337418    
         378           1   33.980553       11.819757       8.7374916    
         379           1   25.394651       41.583061       24.460117    
         380           1   34.932907       28.079937       7.3429875    
         381           1   36.120583       25.296070       28.956303    
         382           1   18.852934       24.607605       19.985601    
         383           1   5.4299383       30.232119       11.083887    
         384           1   41.974583       37.217999       28.997332    
         385           1   29.739578       17.500336       32.717434    
         386           1   8.5386286      0.25515836       41.810207    
         387           1   1.2256041       28.423685       3.4639242    
         388           1   23.516434       42.329361       11.673962    
         389           1   16.585852       16.668154       43.080616    
         390           1   8.4383688       40.235470       10.418044    
         391           1   3.8864439       3.4993019       20.314877    
         392           1   31.289244       18.829535       40.360828    
         393           1   6.8442774       30.577974       42.757092    
         394           1   24.063585       21.382498       34.527054    
         395           1   22.060350       28.292507       23.269398    
         396           1   42.944630       25.025963       24.885897    
         397           1   11.492387      0.50326353       22.731562    
         398           1   5.8342195       14.872211       20.209404    
         399           1   34.497837       41.876938       41.099106    
         400           1   29.989271       41.436104       32.680111    
         401           1   42.772961       42.162926       10.709668    
         402           1   22.829760       29.271074       35.586308    
         403           1   3.8215418       37.296288       24.928844    
         404           1   37.142139       40.616051       34.974720    
         405           1   8.6765308       13.548818       8.4386606    
         406           1   38.619568       19.234716       35.419724    
         407           1   14.312986       16.451250       30.976152    
         408           1   23.537848       30.206751       37.930084    