 Position data for CuZr system
        5000 atoms
 2      atom types
  -21.496300       21.496300     xlo xhi
  -21.496300       21.496300     ylo yhi
  -21.496300       21.496300     zlo zhi

 Atoms

           1           1  -18.910305       1.8091832       19.624128    
           2           1  0.36452374      -14.073792      -6.3099928    
           3           1   12.121216       15.095405     -0.98593116    
           4           1  -4.2595353      -4.1019135       10.052402    
           5           1  -17.626690       20.471992       19.963867    
           6           1  -21.467854      -7.4119282       4.7877984    
           7           1   3.9962711      -15.357684      -7.5539126    
           8           1  -6.0102959       2.8551826      -13.518440    
           9           1  -6.2639537       16.166193      -20.469120    
          10           1  -6.1121764      -10.501882       1.8552717    
          11           1  -6.8388119      -15.143444     -3.46092097E-02
          12           1  -15.654736      -18.235720       3.4479778    
          13           1   1.4497452       17.072680       11.678078    
          14           1  -15.002897      -4.0538044      -5.8682857    
          15           1   10.426296      -2.4541562       14.626300    
          16           1  -7.0619812      -20.760685       19.242657    
          17           1   10.599074       6.4506803     -0.93873709    
          18           1  -1.1095524       7.4923334      -7.4635053    
          19           1   13.427467     -0.53625721      -15.525177    
          20           1  -14.975456      -20.734768     -0.20560071    
          21           1   9.7496824       5.3568134       4.0298872    
          22           1  -9.1443090      -18.548693      -6.5408416    
          23           1   10.564445       14.755886       5.3258033    
          24           1   1.6511689      -15.867503       12.974351    
          25           1   14.593097       17.437614      -7.3873119    
          26           1   15.414762      -1.3281101       4.3894472    
          27           1   2.7999759       10.664471      -5.1289740    
          28           1  -7.9573889      -3.9569507      -6.2387557    
          29           1   3.1139953      -10.812113      -17.830729    
          30           1   10.773656       21.271368     -0.62997097    
          31           1   9.8029451       11.804339      -3.2339401    
          32           1  -1.2208471      -3.1020429      -16.036240    
          33           1  -15.131425      -12.307663       20.703747    
          34           1   6.6920643      -18.515383       10.154408    
          35           1   3.9818792      -15.553537      -20.327303    
          36           1   9.9193764       6.8146524      -5.1015701    
          37           1   10.295898       18.547762      -16.613672    
          38           1  -17.227005       20.060667       11.782290    
          39           1   4.6823268       5.7456717       9.0794477    
          40           1   4.0784078      -8.4271317       10.420071    
          41           1   17.080782      -5.1783834       12.789248    
          42           1  -8.7168856       6.5960865       13.000603    
          43           1   19.513554      -17.982340      -5.6745396    
          44           1   7.5383930      -18.407074       1.8754270    
          45           1  -17.018707      -18.194073      -5.7181005    
          46           1   14.526081       17.736641       18.958628    
          47           1   2.7648110      -8.4322262      -1.4886539    
          48           1   2.5162024       9.1237631      -9.1308050    
          49           1 -0.96255535       15.645332      -20.248367    
          50           1  -20.474649       7.0219259       15.738120    
          51           1   8.4091425      -12.568242      -3.7993274    
          52           1   13.929989       4.2532368       4.0818882    
          53           1   18.470743      -11.842335      -7.3806725    
          54           1   20.659409       18.571886       8.4964628    
          55           1  -14.293375     -0.77487099      -14.264448    
          56           1   11.132529       13.834734      -17.813105    
          57           1   19.716785      -15.311643      -5.1129298    
          58           1   12.568873       13.900405      -3.1801486    
          59           1   9.1501245      -18.711979       15.699195    
          60           1  -7.0648141      -16.063862       13.569372    
          61           1  -10.568579       8.8228159       8.8602505    
          62           1   14.292183      -6.4654102       17.238785    
          63           1   21.135563      -18.499617       2.5576406    
          64           1   1.6253619       2.2069826      -5.0041037    
          65           1   20.704794      -2.2122879       20.884142    
          66           1   5.7235270       7.2366185       3.7273023    
          67           1  -4.7657166       1.0712546       6.3389764    
          68           1  -11.176108      -13.899278      -21.161310    
          69           1  -5.8846674       2.1238873       1.7529832    
          70           1  -7.6430030       2.5648124       15.028689    
          71           1  -15.160945      -3.4270730      -20.200150    
          72           1  -5.8348322       8.8318262       19.338152    
          73           1   20.360676       21.203346      -3.6177344    
          74           1  -18.541996      -20.228220      -6.7486663    
          75           1  -9.5928564       1.5393965       21.176613    
          76           1   5.8523240      0.96123224      8.31147730E-02
          77           1  -20.551744       8.7045660      0.58491552    
          78           1  -18.434856       21.136232      -11.860602    
          79           1  -11.846230       14.055208       6.6200037    
          80           1  -16.375525      -20.393705       5.8191347    
          81           1  -12.296043       3.3514445       12.535162    
          82           1   19.862595       2.5926902       20.746664    
          83           1   2.3903501      -21.087933       12.180515    
          84           1  -6.3969197     -0.87273467       5.0136466    
          85           1  -14.672776      -12.449011      -10.067462    
          86           1  -13.905831      -3.4114852       12.239905    
          87           1  -3.9671745      -18.548285       7.8462033    
          88           1  -11.198486      -8.4713106       1.0315988    
          89           1   2.3305907      -17.816433      -7.3907018    
          90           1   7.9082885       10.126311       1.4661944    
          91           1  -6.1630397      -11.762265       18.381460    
          92           1   13.065953       17.151964       16.756374    
          93           1   8.8637037       11.063318       3.5512052    
          94           1   13.449074       12.643855      -7.0508451    
          95           1   7.9855423     -0.78483367       3.9131012    
          96           1   1.0568146      2.55214818E-05   17.634933    
          97           1  -16.453617       8.5434923       20.629198    
          98           1   11.926554       6.0045424       17.810883    
          99           1   1.2511436      -12.739684      -12.940617    
         100           1  -17.618755       9.0213137       15.357317    
         101           1  -16.544762      -19.762804       1.7140750    
         102           1   10.318536     -0.44481441      -21.387598    
         103           1  -18.934799       20.264530       3.1784253    
         104           1  -17.067976       17.206942      -10.508391    
         105           1   13.691987      -12.840366     -0.76135105    
         106           1  -8.3192463       8.1098957       20.572552    
         107           1   15.368301      -21.024246       21.416323    
         108           1  -3.7584453      -6.5067968       10.023403    
         109           1  -19.882584      0.20038620       17.831085    
         110           1   15.182064       8.2334585       6.2220078    
         111           1   17.386301       15.518444      -11.716804    
         112           1  -19.608047       9.0190468       17.195887    
         113           1   13.971944       11.285193      -18.582001    
         114           1  -8.7038889      -20.167086       15.222113    
         115           1   11.017806       19.557751       21.249487    
         116           1  -8.6674404      -18.021080      -16.214874    
         117           1   6.9839525       9.2744312       3.6722145    
         118           1   2.5771728      -1.4942379      -19.093712    
         119           1  -7.4791055       12.779327       4.4376926    
         120           1   21.068193      -10.018245      -4.5474334    
         121           1  -6.6817775      -12.474408      -9.9214277    
         122           1  -20.207741       14.657078       13.417644    
         123           1  -15.708277      -16.878277      -1.8775457    
         124           1  -1.2390188      -10.215062       18.942839    
         125           1  -8.2960634      -17.540327      -3.1466722    
         126           1  -13.876469      -20.882582       10.172524    
         127           1  -16.821201     -0.25539073      -14.952873    
         128           1  -1.0868374      0.62162161      -2.1574144    
         129           1  -18.351070       13.025308       21.319120    
         130           1  -10.087149       9.9422703       15.626964    
         131           1   1.5072273      -20.562548       16.610796    
         132           1  -5.7447596      -8.1716757       2.6734083    
         133           1   18.734232      -2.2649720       9.6025848    
         134           1   1.7968494       8.0056686       11.229296    
         135           1   13.519556       8.5010700       17.982115    
         136           1  -17.986713       15.468679       20.178452    
         137           1   8.1351137      -11.467562      -14.672379    
         138           1  0.13082340      0.97621173      -17.496292    
         139           1   13.955776      -6.7519693      -13.655345    
         140           1   2.4174037      -13.966578       4.0613275    
         141           1   9.3593283       3.8914859      -21.305914    
         142           1  -21.384989       18.769590      -7.6329789    
         143           1   11.713260       1.3523104      -8.6284504    
         144           1   10.364532      -11.665492      -21.143568    
         145           1  -16.744127      -15.171855       6.3999062    
         146           1  -8.3467340      -12.814853       17.855474    
         147           1  -5.9598799      -17.295341      -19.995352    
         148           1  -9.8195934      -12.314983      -18.959925    
         149           1   8.1161137      0.53236765       12.661994    
         150           1  -17.425190       14.722014      -20.092432    
         151           1  -8.1358147      -4.7397366       8.8846292    
         152           1   8.4900932      -13.745284       2.4235468    
         153           1 -0.23979072       12.337145       19.873249    
         154           1  -1.5603199       6.3252745       13.476461    
         155           1  -7.0687351      -8.6632318       12.035743    
         156           1   7.6512733      -2.1155620      -15.730227    
         157           1   5.8262033       4.4382701      -12.137309    
         158           1   1.2119616       16.688263       19.314035    
         159           1  -12.747142       5.7296634       10.571528    
         160           1  -12.438070       3.5652430      -6.7969236    
         161           1  -17.311010       19.612419       9.2866621    
         162           1   11.731552       14.762686       9.6601324    
         163           1  -4.6858225      -5.4673104       14.083387    
         164           1  -4.4501486       7.3774209       12.091372    
         165           1   11.856431       15.633256      -15.725057    
         166           1  -20.518017       6.9636507       2.6834440    
         167           1  -12.979549       12.712015       4.6857157    
         168           1   4.7406473       19.736828       18.893377    
         169           1   9.3377018      -1.9829383      -13.940222    
         170           1  0.68976867      -1.1315784      -11.398905    
         171           1  -17.539494      -5.8336439      -18.120913    
         172           1  -6.2954216      -1.0501611      -17.483551    
         173           1  -3.2084408      -4.0349312      -19.867962    
         174           1   15.273511       17.416515       10.250694    
         175           1   14.260197      -15.782070       15.196678    
         176           1  -14.495793       10.714210       5.4212165    
         177           1  -1.3501040      -19.217590      -15.501753    
         178           1   4.0402822      -1.8269824       6.0207663    
         179           1  -4.0171175       15.015322       6.0710073    
         180           1  0.86974472      -9.1025143       18.203470    
         181           1   16.781504      -15.800450       14.871431    
         182           1 -0.82701981      -17.010187      -10.645955    
         183           1  -6.8235407      -6.0874810      -11.382399    
         184           1  -13.840189      -13.837286      0.78863060    
         185           1  -18.779016       15.303669      -17.726006    
         186           1  -6.7911916       7.1831970      -18.326797    
         187           1   13.896015       10.224488      -8.2437382    
         188           1   3.6929433      0.97441447      -1.5844408    
         189           1   5.0481920       11.078971      -12.097417    
         190           1   9.4197245       16.363913      -15.272628    
         191           1   19.503012      -12.544629      -11.617476    
         192           1   17.299088       19.151461       2.7827861    
         193           1   6.5803657      -16.892574      -20.403997    
         194           1   14.562532      -12.669836      -19.698391    
         195           1  -9.5632801       8.4416466      -8.9516954    
         196           1   15.966763       1.3171726      -3.1165509    
         197           1  -9.3383589      -5.5036306      -20.794317    
         198           1  -3.3615716      -15.814443      -7.1208572    
         199           1  -21.077423       2.4486644       15.526930    
         200           1   5.5921478      -10.073305      -11.212314    
         201           1   10.252505      -4.3799267      -13.325809    
         202           1   6.2207246       15.136946     -0.58391958    
         203           1   17.214289       8.5715675      -5.7905946    
         204           1  -8.8629503      -13.420443      0.25146022    
         205           1  -3.9139700      -1.7195776       5.9305558    
         206           1  -1.8235525       20.250019      0.84928995    
         207           1   12.514441      -5.9323316      -3.0547140    
         208           1  -13.537210       13.718774      -9.7281151    
         209           1  -1.7078135       1.6748047       2.7605197    
         210           1  -16.079840       5.5190039       4.8134933    
         211           1  0.16435856     -0.64662862      -8.2127562    
         212           1   21.406605      -2.0087361       8.9000435    
         213           1  8.89528766E-02   15.229006       16.043783    
         214           1   19.345427       14.740354       5.6688962    
         215           1   13.566495       2.0182972      -15.345160    
         216           1  -14.191560      -4.0527873       2.0883989    
         217           1  -18.902121      -2.5365424      -3.4712391    
         218           1  -2.8180544      -3.1865399     -0.64355969    
         219           1  -10.726129      -14.088158      -6.4520235    
         220           1   19.053467      -8.6992311       9.1505356    
         221           1  -16.978788       21.332884      -8.2447300    
         222           1 -0.74197251      -14.160193      -16.739697    
         223           1   2.9963896       4.3644109       5.4158063    
         224           1   3.7109098       3.3015218      -6.0333457    
         225           1   8.4331026      -3.1976590       4.3088689    
         226           1   7.6124611       6.2002091      -11.400908    
         227           1   6.7251282      -19.414215       16.386299    
         228           1 -0.77590072      -2.3333426      -13.690164    
         229           1   11.772086       11.263633       14.815907    
         230           1   10.378122       14.298322      0.90563065    
         231           1   18.598948       2.0896823       12.466210    
         232           1  -11.912746      -20.132523      -15.934830    
         233           1  -8.8718596       7.5526562       10.344967    
         234           1  -16.392134      -17.802017       5.8951092    
         235           1  -5.3699203       9.0483379       1.0627221    
         236           1   18.425522       20.507505      -1.8690188    
         237           1   19.911535       14.921229       3.1433942    
         238           1   13.648846      -5.9738793       5.0338359    
         239           1  -3.3867879       2.6642394       10.542731    
         240           1  -8.7967558      -13.193668      -20.894701    
         241           1   7.8691773       10.095544       14.867639    
         242           1  -13.126473      -17.452991      -19.068056    
         243           1  -20.546663      -17.749445      -9.2570410    
         244           1  -20.021877       16.651466       11.864284    
         245           1   4.9724383      -13.286879       21.324186    
         246           1  -5.3375635      -12.324144      -3.3507867    
         247           1   16.476801       18.977867      -6.5493846    
         248           1   9.3430042      -17.508381      0.29222465    
         249           1   9.7080269       18.305758      -8.3587084    
         250           1   7.4339743      -2.5575955       17.287455    
         251           1 -1.21310139E-02   14.445112      -6.0845575    
         252           1   15.236896       16.293327       12.409972    
         253           1   18.315720      -13.021334      -15.724517    
         254           1   3.9548376      -5.3275356       16.705515    
         255           1  -18.619579      -21.359121       16.488237    
         256           1  -19.671631      -7.4100204      -18.341944    
         257           1  -13.315544       1.7447422      -3.1954222    
         258           1   5.8396955       13.917097       2.1329756    
         259           1 -9.11807194E-02  -8.3309088      -19.530201    
         260           1   9.7215309      -9.0388565       15.977253    
         261           1  -5.2641568      -13.643894       7.7320328    
         262           1  -8.9516382       9.0273809      -1.4026763    
         263           1  -3.5014398      0.89794952      -5.9927073    
         264           1  -5.0163736       20.082394       4.0064726    
         265           1   4.6732411       18.754869      0.92755938    
         266           1   5.6378331       1.7093586       8.0478363    
         267           1  -17.514259       1.8261883      -15.608584    
         268           1   14.903252      -9.7215862       13.602407    
         269           1  -8.0642138      -10.255032       17.428106    
         270           1  -6.9226670      -21.230103      -20.776728    
         271           1   8.9905224      -20.640118       20.911299    
         272           1   7.4537148       2.8852801      -8.0409918    
         273           1   13.841353      -18.916895      0.93742383    
         274           1   1.6893886      -20.367224      -6.7846851    
         275           1  -14.335189       11.764681       20.614708    
         276           1  -5.3867426       2.5041671       19.126434    
         277           1  -2.6082368      -2.8211179       11.512231    
         278           1  -13.132250      -19.779266      -18.177927    
         279           1   4.0908928      -11.188590      -9.3522224    
         280           1   14.279727      -2.6845791       21.192387    
         281           1 -0.17025270      -13.297952      -8.7872610    
         282           1  -14.923238      -3.1673110       14.913247    
         283           1   5.3281565      -11.812061      -18.569046    
         284           1  -6.9972787      -15.020528       8.9068356    
         285           1  -16.152149       15.292219       12.230616    
         286           1   9.2815771      -3.2003191      -8.7207737    
         287           1   6.8709006      -9.2678871      -20.255930    
         288           1  -13.491529      -11.899953       2.4384918    
         289           1   12.650760     -0.44559917       17.808168    
         290           1  -16.772720      -12.755960       7.0892463    
         291           1  -19.063000      -6.2033777      -16.082403    
         292           1   7.4290624       4.1334171       4.7140083    
         293           1   19.101053       1.5034440      -6.9870400    
         294           1   13.612755       6.8835640       4.8715110    
         295           1   13.240500       6.9277749      -15.716684    
         296           1  -20.414190       4.3206081      -17.047482    
         297           1   3.3788409      -8.7737446      -16.003822    
         298           1   19.880381      -5.8116593       5.9317679    
         299           1   13.363555      -16.081789      -6.7032413    
         300           1   6.8170609       17.388975       15.688156    
         301           1   10.097934       14.301565      -2.6748400    
         302           1   15.970037      -7.6074467      -1.8020518    
         303           1   5.7791696      -7.8516788      -15.705186    
         304           1   17.258686      -6.5661244      -3.7903345    
         305           1   13.020167      -1.8192701      -5.8017879    
         306           1   19.833277     -0.56376052       5.0231924    
         307           1  -19.371576       20.364176      -7.9284101    
         308           1  -13.208116       16.055214       17.983101    
         309           1  -12.634272      -18.226778       14.480491    
         310           1 -8.26231614E-02  -17.648829       12.942458    
         311           1  -19.261200      -13.621278      -6.5782599    
         312           1 -0.46670684       8.8270159       6.9745789    
         313           1  -13.042759      -7.2527657       17.451818    
         314           1   20.964520       5.1848931       9.2871037    
         315           1   8.1981573       2.5679588       8.9022980    
         316           1  -20.940971      -14.117592       14.605907    
         317           1   2.4198444      -1.7476342      -7.7567306    
         318           1   1.6751572      -2.9658437      -12.961397    
         319           1  -11.184555       9.8523331      -2.1279678    
         320           1   13.605373       2.2119675      -3.9321890    
         321           1   12.560842       21.133112       7.9808764    
         322           1   17.611181       6.6657662       12.188775    
         323           1  -20.331659       20.513737       1.0814112    
         324           1  -12.374970       1.7430977      -8.4891567    
         325           1   4.5669880       19.975094       5.7716136    
         326           1  -15.167039      -2.0052884      -1.4543880    
         327           1   21.331953       16.515181       20.473473    
         328           1  -14.657665      -15.942841       2.1392326    
         329           1  -18.166712      -16.892759       16.302341    
         330           1  -2.3529949       4.7550869       6.9788766    
         331           1   17.381935      -19.537218       16.897461    
         332           1  -12.388807       7.7144337       2.4803517    
         333           1   4.5043330      -1.1378671      -9.2282648    
         334           1   6.4315248       20.483511      0.38815540    
         335           1  -1.5637195       1.0111940      -7.6637006    
         336           1  -14.660633      -12.723315      -17.076685    
         337           1   14.614383       1.0535686      0.64238971    
         338           1   19.155174      -9.4569559       13.958356    
         339           1   9.0256042      -6.0211325       18.991327    
         340           1   17.152725       6.4225430       19.759855    
         341           1   2.3290825      -5.8406377       4.3213096    
         342           1  -3.1444466      -5.1912737       12.106834    
         343           1  -20.825687       11.431176       5.0433283    
         344           1   11.497881      -2.2148817      -12.338499    
         345           1   19.815849      -3.3052309       5.2467818    
         346           1  -10.458939      -6.0870466       17.354231    
         347           1  -4.7206016      -17.947626      -7.2553439    
         348           1   15.431711       20.688509      -12.565266    
         349           1   7.4992490       21.029034       12.937330    
         350           1  -21.229877       10.969090       17.106150    
         351           1  -18.998241      -15.268787       1.0322633    
         352           1  -18.567102      -2.2966433       13.205935    
         353           1  -21.148407      -11.764964       6.3257642    
         354           1   11.536606       6.6146479      -3.2033055    
         355           1   16.009853      -8.4036512      -19.088516    
         356           1   19.431887      -13.023803       9.8746605    
         357           1   3.6405375       8.9872513      -6.7533202    
         358           1   11.842172     -0.92754269       9.8418512    
         359           1   10.945734       17.959492       15.938578    
         360           1   2.4664555       19.717764      -3.4887371    
         361           1   13.271015      -13.385365       16.953247    
         362           1   20.446953       6.5791860      -10.237004    
         363           1  -9.3729410       19.125465      -11.899789    
         364           1  -7.1378913       14.179200      -13.779367    
         365           1  -9.5284891      -15.190501       8.8190308    
         366           1  0.78618103       6.5235615      -18.509655    
         367           1   5.6754208      -21.047197       14.859253    
         368           1  -9.7475042       15.535020      -3.2357869    
         369           1   8.8309746      -5.8372388      -8.9147377    
         370           1   4.1649213       13.305272      -8.1024094    
         371           1   13.494412      -13.201097      -17.289387    
         372           1  -18.419567      -2.3686657       1.0153893    
         373           1   16.658312       19.706152      -17.754559    
         374           1   1.7967576       4.7385607      -5.9643011    
         375           1  -13.323408      -7.6098056       20.099001    
         376           1  -11.041108       7.2888346       16.871639    
         377           1   4.8628826       1.4701697       15.291226    
         378           1   13.723566      -17.415133       17.369204    
         379           1   17.789705     -0.25609306      0.64408928    
         380           1  -12.873100      -20.724709       7.9087758    
         381           1   3.5075040      0.80458355      -14.447190    
         382           1   14.718596       19.837543      -4.8161039    
         383           1   18.181688       7.9735985      -10.125202    
         384           1   20.323750       4.7862701      -8.4155769    
         385           1   12.900466       12.953452       11.246723    
         386           1   14.085069      -4.3514552      -19.647894    
         387           1  -14.482106      -10.939878       10.635015    
         388           1  -3.2796984      -5.2645206       7.8994107    
         389           1  -5.3194523      -2.2424834     -0.48727357    
         390           1  0.55169994      -12.909279       5.6411467    
         391           1  -11.330093       21.441563      -18.098684    
         392           1   5.9263377       3.7623422       15.463811    
         393           1   19.137083      -7.4393969      -12.117492    
         394           1  -13.639098     -0.94650364       11.440797    
         395           1   6.4378133      -10.923982       20.005613    
         396           1   5.9450917       17.487558       18.106396    
         397           1  -8.5994473      -8.9325514      -12.996185    
         398           1   9.5332251       2.7196035      -3.0806086    
         399           1  -10.918671       2.1096730       10.611188    
         400           1  -1.3766890      -11.364891       4.8185725    
         401           1   5.6743979      -15.071588     -0.58487058    
         402           1  -19.007782      -7.6417837      -2.1359141    
         403           1   1.6469108      -12.117644      -5.0732927    
         404           1   9.2376785       3.5354345       16.053522    
         405           1   10.068323      -4.2729440       2.6777401    
         406           1  -6.9439783      -12.986869      -1.4119617    
         407           1  0.78504479       7.0677071       5.7073779    
         408           1 -0.71867096      -2.9835184       16.382328    