LAMMPS data file via write_data, version 3 Mar 2020, timestep = 1500000

14400 atoms
2 atom types

6.2061728879113751e+00 6.9823727112151786e+01 xlo xhi
6.2061728879113751e+00 6.9823727112151786e+01 ylo yhi
6.2061728879113751e+00 6.9823727112151786e+01 zlo zhi

Masses

1 63.546
2 91.224

Atoms # atomic

10271 1 7.1473773639045026e+00 1.1051402144062456e+01 1.0350647475380349e+01 -30 36 27
12808 1 8.3420349739770785e+00 8.7226657867348614e+00 1.1174932993519594e+01 -29 36 28
4435 1 7.9730818129946819e+00 6.9898372907222406e+00 9.0490076433848401e+00 -33 35 23
8354 2 9.2311507030142010e+00 9.7160317649544972e+00 8.8151082686007758e+00 -27 39 22
10151 1 9.6326240623321624e+00 1.1089456277901956e+01 1.1189130722458650e+01 -31 39 23
6401 1 1.0270249442195885e+01 7.1300196477261792e+00 8.7393455155816753e+00 -27 35 26
1198 1 1.0436810595521891e+01 8.5346156117206000e+00 6.8153119671670357e+00 -31 35 23
9030 1 7.6406187998245949e+00 9.3054990862985285e+00 6.5691632544683767e+00 -30 39 20
11923 2 9.4381839352687198e+00 6.2719942882528414e+00 1.1351458218118767e+01 -30 38 24
3061 1 1.1337953637746841e+01 8.6822875091868745e+00 1.0660169747972674e+01 -34 33 21
6862 2 8.6020897826067184e+00 6.5206877519064808e+00 6.3026575502854154e+00 -28 36 23
5003 1 1.1459777172183070e+01 6.2999545078233439e+00 6.8995942515513571e+00 -33 40 27
2052 1 1.1632360990118901e+01 1.0990940468506505e+01 9.3438437548443520e+00 -36 34 20
1326 1 1.1864424088326658e+01 1.0418270146923557e+01 7.1184742237632097e+00 -24 38 24
5315 2 1.3167257910880840e+01 8.3542120948138514e+00 8.4428993190522927e+00 -27 38 24
9833 2 1.4411795394704841e+01 1.1157385469680230e+01 9.5580445697660572e+00 -29 44 23
9120 1 1.5636164864807897e+01 9.0327576964439729e+00 8.5116930128295039e+00 -34 36 20
5550 2 1.4160911049063614e+01 8.3925909196243111e+00 1.1488482564965432e+01 -31 30 22
2942 2 1.4555375745711059e+01 1.0670402034492383e+01 6.4015300580561441e+00 -31 34 26
2018 2 1.5652574989019236e+01 6.2995334757213728e+00 9.6436953091703845e+00 -34 43 21
13386 2 1.7448111497035541e+01 9.0694491539256461e+00 1.0583923247900350e+01 -31 34 30
2783 2 1.7578641954118144e+01 1.0871859807721073e+01 7.5507115566657248e+00 -26 34 26
9519 1 1.7764766257136937e+01 7.5924823899392315e+00 8.3293814087454621e+00 -26 36 23
10309 1 1.9511768312576564e+01 1.1368368312949450e+01 9.7641093839950450e+00 -27 38 29
11572 1 1.9682499126209464e+01 9.2524215494863533e+00 8.3716031507469584e+00 -30 34 27
2222 2 2.0604701802046876e+01 1.1506034217902219e+01 7.0319986399378696e+00 -30 36 18
8155 2 2.0700885151582053e+01 8.9383630909013334e+00 1.0738054701623481e+01 -30 35 23
6190 2 2.0298239407282001e+01 6.5571064589266834e+00 8.6465059646784965e+00 -32 36 22
10293 2 2.1964590550954153e+01 8.2700376857356090e+00 6.8433995740854172e+00 -29 35 26
3797 2 9.7698010912439202e+00 1.1832797527432298e+01 6.3777411038373586e+00 -28 34 26
6428 1 7.1463203063459737e+00 1.1531946650578359e+01 7.9223318067289341e+00 -29 38 23
5059 1 8.5659525069107438e+00 1.5742357988388541e+01 9.0393064409759436e+00 -29 37 28
6247 1 9.1514167197239704e+00 1.6798747426554478e+01 6.9860230911724379e+00 -30 38 24
579 2 9.5260917447366289e+00 1.3064131931084297e+01 9.2883693547920316e+00 -36 42 29
310 1 9.8515040640468712e+00 1.5384550789939984e+01 1.1150189154116422e+01 -31 35 23
2867 2 7.6654717038903355e+00 1.4339089071000588e+01 6.7988746629585144e+00 -26 37 21
11711 1 1.0474845640010429e+01 1.4586566847456536e+01 6.7343381894340428e+00 -26 36 26
9226 2 1.1537195008054530e+01 1.5938247214566674e+01 8.6532211277061499e+00 -28 39 30
3832 2 1.2106153011591474e+01 1.3806928350098996e+01 1.1091699385786749e+01 -30 36 23
9281 2 1.2548885256340577e+01 1.3021469694577521e+01 7.5932796965945055e+00 -31 36 27
7840 1 1.3924704028868099e+01 1.4466343379036422e+01 9.5920698276573599e+00 -31 34 26
10343 2 1.5002864282149948e+01 1.6593185499170488e+01 8.0859131427669553e+00 -32 38 25
9242 2 1.5853111156591906e+01 1.3465216499394597e+01 7.7362185927061144e+00 -27 37 23
2093 2 1.6499581272370524e+01 1.5063360937735208e+01 1.0466778853914462e+01 -29 35 24
13450 1 1.3393773535044986e+01 1.5247188736598892e+01 6.4472674654648197e+00 -27 37 23
13640 2 1.6943562726792141e+01 1.2017481108854753e+01 1.0447484104086357e+01 -28 37 29
11172 1 1.7639912748879951e+01 1.5618418751843821e+01 7.4276419174821804e+00 -33 41 23
11340 1 1.8492924118532397e+01 1.3344196861676419e+01 8.7022461605562498e+00 -29 37 27
3483 1 1.9313020442867014e+01 1.5538708163984115e+01 9.4875790254211072e+00 -26 41 22
2270 1 2.0206584793545691e+01 1.4650841070700523e+01 7.1181080641904275e+00 -31 37 25
1967 2 2.1297617317169163e+01 1.3562214031339982e+01 9.5418831696363533e+00 -31 40 19
350 2 6.5221842863384873e+00 1.7235022289209585e+01 8.4955789034410429e+00 -35 41 28
2654 2 6.4148156686654332e+00 1.9219423093617294e+01 1.0785811940913316e+01 -29 34 25
5748 2 8.7786431061833348e+00 2.1200399712425646e+01 1.0227039196331052e+01 -31 36 23
2382 2 8.4660827768809739e+00 1.9314820285191608e+01 7.2871301323442497e+00 -30 33 23
1594 2 9.6103953369681001e+00 1.8237413481636455e+01 9.8574161938719307e+00 -27 35 22
1202 1 1.0992034160584874e+01 1.8518272134465484e+01 7.0979678972738576e+00 -31 43 27
11153 1 1.1240278390831882e+01 2.0129748707286083e+01 1.1269596010447078e+01 -29 37 25
8936 2 1.1314346448808118e+01 2.0885113298213511e+01 8.2367967694877819e+00 -29 34 26
13426 1 1.3835029579710607e+01 1.6935814598149229e+01 1.0402647766679191e+01 -25 32 24
9377 1 1.3614742076291105e+01 2.1729714511871709e+01 6.3835810315373545e+00 -32 35 27
10328 1 1.2617590516490655e+01 1.8675905927829973e+01 9.4164140934008067e+00 -31 41 23
11753 1 1.3521135668455781e+01 2.1275746554584604e+01 9.9382200215781857e+00 -26 37 26
1725 2 1.3851384496124481e+01 1.9106332709321766e+01 7.2145594526153847e+00 -28 37 23
2332 2 1.5906232744925902e+01 1.9730020932932632e+01 9.2968860144242154e+00 -29 41 26
3550 1 1.6030191191296673e+01 1.7635083989885413e+01 1.1353328141330969e+01 -22 41 19
2717 1 1.5955904455687957e+01 2.0777632138461058e+01 6.7384925760991461e+00 -24 35 27
2499 1 1.9809960501650849e+01 1.7085102322474846e+01 7.5056604907597615e+00 -34 39 25
7092 1 1.7583713798419836e+01 1.7510197002129360e+01 9.2828172106454208e+00 -31 39 23
7383 2 1.8260259696194108e+01 1.9825000589292568e+01 1.1318083519048088e+01 -34 38 24
10707 2 1.8645574343620808e+01 1.9552262169465202e+01 7.8229077413804138e+00 -29 36 25
9164 1 1.9957268376477415e+01 1.8114157855895812e+01 9.8334270488082840e+00 -31 41 24
11046 2 2.0479303706855472e+01 2.1118798404277840e+01 9.6984291870055479e+00 -30 36 24
5578 2 2.1938240263878491e+01 1.9141638396528052e+01 7.8168373470956620e+00 -33 35 26
10781 2 7.3164351236174223e+00 8.0377347451821297e+00 1.3722479468121033e+01 -27 37 22
1083 2 7.6996696966088791e+00 1.1189727874901788e+01 1.3102875217220888e+01 -31 38 27
6196 2 8.3403883863265698e+00 9.9157972708076301e+00 1.5859747453855794e+01 -23 29 24
4790 2 1.0248868330972115e+01 9.1006979128544891e+00 1.3265002750753796e+01 -32 40 23
9868 2 1.0866711299009442e+01 8.2357155835783011e+00 1.6331544280355502e+01 -30 38 25
4864 1 1.1087583955035425e+01 1.0940477898718465e+01 1.5016077758197147e+01 -29 36 24
9062 2 9.7560799581693214e+00 6.2382146879182727e+00 1.4403383146889812e+01 -28 39 28
4370 2 1.2494571723542339e+01 1.0858912376940665e+01 1.1891408622186823e+01 -30 37 19
2323 1 1.2740670798644839e+01 1.0718039112443481e+01 1.6760512601866882e+01 -35 36 26
6589 2 1.3466181261537749e+01 9.3136626945528516e+00 1.4492572810171749e+01 -32 34 26
13324 1 1.2179220550957313e+01 7.1988890292316379e+00 1.2982515599259262e+01 -24 40 26
2116 1 1.4995412282689127e+01 7.0521784879645857e+00 1.4113005232030524e+01 -30 32 21
2085 1 1.5258426712803711e+01 1.0823168298543946e+01 1.2564024768848416e+01 -29 37 24
12715 2 1.6188354225561078e+01 1.1390503211713757e+01 1.4998895742259396e+01 -24 36 28
5159 1 1.5926872906321197e+01 8.6813117223963907e+00 1.5817356845615068e+01 -25 39 19
5174 1 1.6524511420309835e+01 8.8207434967836900e+00 1.3270609487332999e+01 -27 38 23
8063 1 1.6879782045496139e+01 6.4481975347235974e+00 1.2271911111439980e+01 -31 32 30
9847 2 2.1754534093142926e+01 9.9871460816079285e+00 1.3867756129554785e+01 -27 35 24
11166 2 2.0590737158494647e+01 8.0705357521944769e+00 1.6043510523692483e+01 -27 37 24
3435 1 1.7505695549343464e+01 7.0453324167258806e+00 1.4911411239999769e+01 -29 37 22
7916 2 1.9794696543761926e+01 1.1450526197329108e+01 1.6053172875300454e+01 -34 36 27
2469 1 1.8342212920796246e+01 9.4430834731795503e+00 1.5105129486810968e+01 -29 38 26
7570 2 1.8824353892259722e+01 1.0987805940555258e+01 1.2833776320554499e+01 -35 33 26
3946 2 1.9255086704423711e+01 7.7844865983197256e+00 1.3065689233242683e+01 -31 40 19
2950 2 7.2152605261725675e+00 1.6446139900232573e+01 1.1561083351465156e+01 -23 43 23
12065 1 8.1291296569322942e+00 1.3642142026933087e+01 1.1528806001016797e+01 -26 42 27
12562 2 6.7420054699145489e+00 1.3966976291936424e+01 1.3973025870617683e+01 -31 39 23
12299 1 7.7829006190738257e+00 1.5504065256985305e+01 1.6356577695934345e+01 -28 36 24
12917 2 9.0973631892881528e+00 1.2908689737154665e+01 1.5871080291643556e+01 -28 39 26
2673 2 9.1793683672559645e+00 1.5758971089552979e+01 1.3942143408723842e+01 -30 34 21
10094 2 1.0187375406142154e+01 1.2867655586328581e+01 1.3134564816190725e+01 -28 34 24
9986 1 1.4653689871969657e+01 1.3097182561633199e+01 1.1748992648771306e+01 -26 35 25
1426 2 1.3308818462398968e+01 1.2636464306598695e+01 1.4329974001203437e+01 -27 41 24
8405 1 1.1554779510718326e+01 1.3151539927125164e+01 1.6339261300463033e+01 -29 31 30
8047 1 1.1877095652515290e+01 1.4973578889785307e+01 1.3874438748285115e+01 -30 39 28
6158 2 1.3224361288335892e+01 1.5718008810973238e+01 1.5987383372301709e+01 -30 38 23
2301 2 1.4493677088042288e+01 1.5575182226777738e+01 1.2885420929254380e+01 -31 32 26
11553 1 1.5443073176771323e+01 1.4172371259040979e+01 1.4868403288522645e+01 -28 36 20
1923 1 1.5821986724722873e+01 1.6689821938767523e+01 1.5555427101947444e+01 -31 36 27
12477 1 1.6681104999936256e+01 1.3339578577477413e+01 1.2999203108501696e+01 -31 37 24
4535 1 2.1922908314368669e+01 1.4406933883936487e+01 1.1973706408155804e+01 -30 36 24
7218 1 2.0692937482088418e+01 1.6363872523288265e+01 1.1657937796393723e+01 -30 38 24
5720 1 2.1261620950310636e+01 1.1753574274548297e+01 1.1637780243991728e+01 -26 36 23
13777 2 1.9246631028538694e+01 1.4006370248894971e+01 1.1723046779948699e+01 -26 40 22
9864 2 2.0446591434666104e+01 1.4580001242473564e+01 1.6423922501505960e+01 -29 35 24
12827 1 1.8852019683795213e+01 1.6656887848294684e+01 1.6048672467326274e+01 -28 36 23
11640 1 1.8563250442578799e+01 1.3411761064461388e+01 1.4575165369258814e+01 -27 34 24
5351 2 1.7620131021670499e+01 1.5865230164755362e+01 1.3701828772274609e+01 -32 42 27
6563 2 1.7205890589238045e+01 1.4163409131380060e+01 1.6673365254753353e+01 -30 37 28
3210 1 2.0355680098268639e+01 1.5745419481713505e+01 1.3919951815321266e+01 -31 39 21
9601 1 2.1095317251908526e+01 1.2932437859374211e+01 1.3863395873514612e+01 -27 34 21
10421 1 1.0182486405975803e+01 2.2025893319036712e+01 1.2612346515983926e+01 -26 39 27
3167 1 6.5161818667993749e+00 1.9458186620753040e+01 1.3483136811445526e+01 -31 42 24
2670 2 8.7767754224260788e+00 2.1381323386665503e+01 1.5023613752433443e+01 -26 37 25
12367 2 8.8176498738710727e+00 1.8410402025230191e+01 1.5846172141434275e+01 -32 37 24
6703 2 9.0002807278615595e+00 1.8954377806547420e+01 1.2830529052851123e+01 -23 33 27
11493 1 1.1370754947595366e+01 1.7319744916848801e+01 1.4641816807856079e+01 -30 38 24
12222 2 1.5877951798210205e+01 2.1982591144487571e+01 1.1794849978546138e+01 -30 36 23
9321 2 1.1683122825620066e+01 1.6998860130830820e+01 1.2008133078063583e+01 -27 36 27
8514 2 1.3878568364431775e+01 1.9515317031245601e+01 1.1928493421655615e+01 -30 34 26
1708 2 1.1611418800824662e+01 1.9972403177741519e+01 1.4307551568969854e+01 -29 37 28
11174 1 1.2725159928121805e+01 2.0990011380370248e+01 1.6642275619738196e+01 -29 32 25
7880 1 1.2874810777625248e+01 2.1897904943267640e+01 1.2449275388034962e+01 -27 37 26
13873 1 1.3840299581375687e+01 1.7872005635207238e+01 1.3981449339921280e+01 -30 38 26
9521 2 1.4324635833902212e+01 1.9024666103648414e+01 1.6300917707224443e+01 -31 38 31
12652 2 1.4683534237634079e+01 2.1679125126648870e+01 1.4586929375528900e+01 -32 39 22
815 2 1.6361445427847933e+01 1.8875830800123147e+01 1.3675666884045114e+01 -38 35 27
3752 1 1.1645353740471606e+01 1.8521291811975289e+01 1.6779911460800353e+01 -30 32 24
14145 1 1.6590630730400957e+01 2.0348147347290208e+01 1.6240480662443762e+01 -32 35 28
4135 1 1.8458141824962723e+01 1.6960307170571369e+01 1.1595191247789446e+01 -30 34 24
12228 2 2.1922608031182328e+01 1.7502551808894452e+01 1.5767677645346057e+01 -31 38 23
766 1 2.1029733995364765e+01 2.0250902783958686e+01 1.5356320000368141e+01 -33 40 26
13240 2 2.0920149774655368e+01 2.1460328788219627e+01 1.2716932680502568e+01 -30 39 21
7745 2 1.9831188968247503e+01 1.8408024083305772e+01 1.3738149091738851e+01 -32 37 25
8997 1 1.8607771699998828e+01 1.9365943158273893e+01 1.5782331582813436e+01 -31 36 22
10904 2 1.8254503738643308e+01 2.1335354201657381e+01 1.4160830470047234e+01 -29 37 20
5454 2 7.8140168969299442e+00 6.8118639982647551e+00 1.7017144629368548e+01 -26 37 29
6883 1 6.7591973441601025e+00 6.9700608365850441e+00 1.9746618377914249e+01 -29 38 24
14199 1 6.4084375374448603e+00 9.3566053835334984e+00 1.7959515112746239e+01 -27 34 21
11705 2 7.1051856815899317e+00 9.7486124983451639e+00 2.0565329816000926e+01 -29 37 27
1014 1 7.9204751253171093e+00 1.1450358098907380e+01 1.8295590096284549e+01 -32 40 25
14123 1 9.0293898567612167e+00 9.1033423480103082e+00 1.8629348838512200e+01 -31 41 31
9088 1 9.6754089016191429e+00 1.1067131888480546e+01 2.0074996356544155e+01 -31 33 21
12206 2 9.8171487072547805e+00 6.6492591619628794e+00 1.9267075504935043e+01 -30 38 24
9532 1 9.9200734971205282e+00 8.8130996763036471e+00 2.1111649839983610e+01 -31 36 28
5930 1 1.0449550723196888e+01 1.1059349963760553e+01 1.7495982896459566e+01 -27 33 27
3166 1 1.3600697752986898e+01 7.9160374046118775e+00 1.6935804041053913e+01 -25 37 35
12202 2 1.2007392245652984e+01 1.0394099229633794e+01 2.1970139254153100e+01 -28 39 29
12121 2 1.2052604853396410e+01 9.2642658722867246e+00 1.9149863966699243e+01 -28 36 23
13717 1 1.4286141088653658e+01 1.1339614602909748e+01 2.0409029027769016e+01 -30 36 27
1719 2 1.2188649735799835e+01 7.0117333887954105e+00 2.1376854283562203e+01 -26 40 21
5668 1 1.4481294290744090e+01 9.4236468095164483e+00 2.1941833097940968e+01 -28 41 24
1906 2 1.5037127720512519e+01 1.0047568861309168e+01 1.8090442272986447e+01 -31 38 29
5788 2 1.5209908220655164e+01 7.4761887231103801e+00 1.9930933847163544e+01 -26 36 23
6359 1 1.6692660181589581e+01 1.0161601862004391e+01 2.0515454466773424e+01 -35 40 22
13630 2 2.0508919557051147e+01 7.0950520085237843e+00 1.9084058951841477e+01 -28 35 22
4351 2 1.9022850929448435e+01 1.0800416812438293e+01 1.9455708049822977e+01 -31 34 22
5534 2 1.8191130260582074e+01 7.9996319823048605e+00 2.1137478306747937e+01 -28 42 28
13130 2 1.7823272055779075e+01 8.6800127721637814e+00 1.7841566683696605e+01 -26 36 23
2291 1 2.0918231492158831e+01 9.7105664850034401e+00 1.8090816805242834e+01 -29 36 25
12250 2 2.1190820137899209e+01 9.3192097431931202e+00 2.1345270200523998e+01 -27 34 25
54 1 1.7326971715609510e+01 1.1285216155667877e+01 1.7297017636202636e+01 -27 40 25
5859 1 1.8568819215302049e+01 1.0876206143772357e+01 2.2096259749866377e+01 -30 38 29
5192 2 1.0458239072783432e+01 1.5892509944163534e+01 1.7004137277619343e+01 -28 36 25
7446 2 7.3919250888785752e+00 1.2965829570494368e+01 2.0867009648331894e+01 -31 36 28
1440 1 7.3590867242849551e+00 1.3819308132923130e+01 1.7944990674135493e+01 -33 33 28
7241 1 8.3773740719363676e+00 1.5982920339184551e+01 1.8836959958039273e+01 -30 38 21
14338 1 8.5483119110213295e+00 1.5347757951904930e+01 2.1169643064117359e+01 -30 35 21
12649 2 9.9504489223401826e+00 1.3583419033518894e+01 1.8842419294549266e+01 -33 35 22
5922 2 1.0487699128138864e+01 1.3481990335953004e+01 2.1937513635532191e+01 -30 36 29
11861 2 1.0921215518861834e+01 1.6162680308591987e+01 2.0417937051928810e+01 -30 38 19
6878 1 1.2142177918989718e+01 1.2119905560927300e+01 1.9329463196581052e+01 -20 34 26
10816 1 1.2453429268422026e+01 1.4573722825749178e+01 1.8493002639280292e+01 -32 34 22
1523 2 1.3562294569799700e+01 1.3890083748972575e+01 2.0888465163704332e+01 -31 36 25
10730 2 1.4209034073814628e+01 1.2848314674113855e+01 1.7346910626774310e+01 -26 41 27
11282 2 1.5109942854352035e+01 1.5721771842765159e+01 1.8663824403534694e+01 -28 36 23
944 1 1.6104186936613864e+01 1.4709036334481405e+01 2.1427865780673507e+01 -29 37 26
2175 2 1.6490301979803895e+01 1.2910162463303912e+01 1.9462654086719709e+01 -26 35 25
3686 1 1.4173250269953837e+01 1.6715003291542388e+01 2.1123307385411600e+01 -29 32 25
5954 1 2.1414754199789002e+01 1.2102409487456550e+01 1.8440725185725505e+01 -34 40 24
307 1 2.1347587085683323e+01 1.6570471516339452e+01 1.8494223824253687e+01 -32 39 25
2751 1 2.1183005459813131e+01 1.4308157285677304e+01 1.9605395690920133e+01 -30 35 26
2927 1 2.0560741878730202e+01 1.6048304092924809e+01 2.1169006519350965e+01 -29 39 18
11864 1 1.9160979360880347e+01 1.3076572677870345e+01 1.8378004972623877e+01 -30 35 24
9774 2 1.8585125395886493e+01 1.5603359902722751e+01 1.9083876499585010e+01 -29 40 19
10491 2 1.8893967670584601e+01 1.3718455306793448e+01 2.1416149161049049e+01 -31 38 22
3198 1 2.1249443441172836e+01 1.1961508668656169e+01 2.0983555195085820e+01 -23 43 23
10748 1 7.7470899907918227e+00 1.7450107594650191e+01 2.0796900694902831e+01 -29 33 27
5969 2 6.4968231179906590e+00 1.7820430069159464e+01 1.7945596134913686e+01 -28 38 23
4664 2 6.8784126779066010e+00 2.0280735382947231e+01 2.0168406482803736e+01 -33 36 25
1412 1 8.4192560709873092e+00 2.0568575797127924e+01 1.7844238782907794e+01 -32 35 25
10255 2 9.5123144907194792e+00 1.9084947127774335e+01 2.1940215408781917e+01 -27 34 24
5482 2 9.7458795327166570e+00 1.8535948943216077e+01 1.8924352386487246e+01 -32 31 24
3458 1 1.0563157367589975e+01 2.0777145858855881e+01 1.7107528272022822e+01 -29 36 21
14357 2 1.0304259819616442e+01 2.1421088284086416e+01 2.0016073778664985e+01 -34 36 23
13598 1 1.2438027077131881e+01 1.9949582339258960e+01 1.8797000216479667e+01 -26 27 29
6116 2 1.4898683073775047e+01 2.1607221465857627e+01 1.8086163956681226e+01 -28 38 19
9236 1 1.2784798671273233e+01 1.7286783165078226e+01 1.8514879653552363e+01 -30 35 29
4820 2 1.5340151655710134e+01 1.9801511566129605e+01 2.1356666867500874e+01 -30 30 24
7831 1 1.4681926364494934e+01 1.8721107332462736e+01 1.9039555125263817e+01 -31 34 19
610 2 1.2421957369173779e+01 1.8827782558395612e+01 2.1234845776063406e+01 -32 35 24
11194 1 1.3376114074883517e+01 2.1856300803524586e+01 2.0388947366500076e+01 -31 35 26
14232 1 1.6584349238788363e+01 1.7280803312323716e+01 2.0687298396254395e+01 -31 37 28
10392 2 1.7491620350282631e+01 2.0418798060490730e+01 1.8952654278058667e+01 -30 35 26
5459 2 1.9969303964380476e+01 1.8577195220717826e+01 1.7867775857102092e+01 -30 35 24
9231 2 1.9603090311660711e+01 2.1711657217488224e+01 1.7008999337247076e+01 -25 35 26
8204 2 1.6942680417979599e+01 1.7747440301830252e+01 1.7799371700345418e+01 -29 38 21
13527 2 1.9097028062306727e+01 1.8251553435933470e+01 2.0878446418936701e+01 -28 37 22
3134 1 2.0248954420146042e+01 2.0703321634427642e+01 1.9996161059902157e+01 -33 37 24
10141 2 6.7492567768351117e+00 9.1964755448639064e+00 2.4105162054196025e+01 -25 39 25
4424 2 9.0172833296251298e+00 8.9563526004851202e+00 2.6577582561713864e+01 -27 36 22
9984 2 8.9974202660935845e+00 1.0984719600443523e+01 2.2835385653594450e+01 -31 34 27
9425 1 6.8658805685878423e+00 6.9508225524762697e+00 2.7379632405766479e+01 -25 34 24
118 1 8.3106338157402391e+00 6.8040650229042345e+00 2.5286627258529624e+01 -29 38 28
3188 2 1.0315107096814121e+01 8.2276387669073365e+00 2.3849391919827571e+01 -26 41 21
1849 1 1.1261510895143228e+01 6.9812284646014504e+00 2.5963272189571668e+01 -30 42 22
12941 2 1.1069992964781317e+01 1.1111403310517520e+01 2.5211424565713369e+01 -26 37 19
13389 2 7.8402387388775114e+00 7.3666104584823984e+00 2.2288154207334681e+01 -34 36 23
8380 2 1.2895923099103744e+01 8.8397271936513615e+00 2.7153934696353144e+01 -33 30 28
5805 1 1.3034632510986729e+01 8.4236038658509980e+00 2.4202372692586046e+01 -27 33 24
1759 2 1.4176422169098471e+01 1.0802052803714838e+01 2.4670606946264193e+01 -30 34 24
1264 2 1.5222286639021657e+01 6.9757157488029131e+00 2.3215079398869605e+01 -31 33 23
1687 1 1.5488832357917412e+01 1.0908489490258672e+01 2.7286429911479551e+01 -30 41 26
7685 2 1.5995528562170531e+01 8.4495451049375632e+00 2.5905399087449389e+01 -36 38 25
11275 1 1.3798312349528420e+01 6.6460667649699614e+00 2.5824314096515248e+01 -29 35 26
9109 1 1.6723745581233892e+01 9.2169426920961222e+00 2.3302949526424726e+01 -29 35 26
3685 2 1.7664000907508921e+01 1.0952064609622134e+01 2.5117904770986030e+01 -24 41 24
10789 1 1.8853206416379670e+01 8.8188453191046783e+00 2.5976562157577039e+01 -29 32 21
1285 1 1.9504312194656872e+01 9.2410664736628831e+00 2.3610682832295318e+01 -29 33 28
1733 2 2.0666828087929154e+01 1.0934468582152718e+01 2.6659976771074920e+01 -30 36 24
10227 2 1.8469578930299285e+01 6.6716550856457264e+00 2.4283697317285959e+01 -32 40 27
4962 1 2.0766754686650891e+01 7.1357031560086854e+00 2.3154766747143960e+01 -29 35 24
14340 2 2.1022300572521583e+01 7.0479390959795039e+00 2.6319476254444769e+01 -30 38 28
14293 2 2.1973165141808376e+01 9.2510039324884374e+00 2.4508733751606162e+01 -26 37 26
6383 1 6.3008616862366411e+00 1.1916094877671544e+01 2.3310305173682945e+01 -31 36 23
12626 2 8.1212480723441693e+00 1.1932318538260597e+01 2.5634003135160139e+01 -27 36 23
1175 1 8.0490829312951568e+00 1.3941700607580293e+01 2.3284693143089097e+01 -27 36 23
6271 2 8.2089182902270554e+00 1.4956573493837528e+01 2.6054432195967038e+01 -32 40 21
2856 2 9.2594827018540435e+00 1.6473689077956777e+01 2.3505954271603056e+01 -23 37 22
453 1 1.0399714857559420e+01 1.3864789180377377e+01 2.4684786105361546e+01 -31 35 28
4391 1 1.0723281282102072e+01 1.3819263010933797e+01 2.6959384944101991e+01 -26 37 21
11434 1 1.1063251739891152e+01 1.5997117727093492e+01 2.5925226540949065e+01 -29 42 24
14006 1 1.2958806179308045e+01 1.1720942426637162e+01 2.7051209238418604e+01 -29 35 22
1778 2 1.2391472826979712e+01 1.5810769326383117e+01 2.3126484142470716e+01 -31 42 28
5523 1 1.2591924725163938e+01 1.2623329227965165e+01 2.3428505675326580e+01 -28 40 28
9144 2 1.3033272688737480e+01 1.4158455952863637e+01 2.5768059464377213e+01 -27 31 27
12550 1 1.4655239888835863e+01 1.3960180213497708e+01 2.3511629450355763e+01 -26 38 22
6313 1 1.5502860948357471e+01 1.2888301815167601e+01 2.5632971497483876e+01 -29 33 20
3761 2 1.5658116758031886e+01 1.6438830899572675e+01 2.3427579976858734e+01 -33 37 30
5455 2 1.5792927645780686e+01 1.5478128211587553e+01 2.6489152122753445e+01 -30 35 26
8959 2 1.5983708780846126e+01 1.2073461711406878e+01 2.2389077444576518e+01 -29 38 26
2661 1 2.1855756909794295e+01 1.4076926045268090e+01 2.2150075438343105e+01 -30 31 30
12347 2 1.7640161801396708e+01 1.3791406210160899e+01 2.4271648362553481e+01 -30 35 29
1945 1 2.0098063601915015e+01 1.3583125551337362e+01 2.5888603261220574e+01 -26 38 26
3156 1 2.0206512589458207e+01 1.5007574131591019e+01 2.3603095682975706e+01 -30 37 30
8752 2 2.0375762577110557e+01 1.2086091202528561e+01 2.3763391099740971e+01 -30 36 28
8391 2 2.1568965133038397e+01 1.6071116701455001e+01 2.5989278759571473e+01 -30 36 25
6119 2 1.8383498971770905e+01 1.6537083542528613e+01 2.5262704280950874e+01 -29 34 24
3961 1 1.8077397950155362e+01 1.6059469781706046e+01 2.2398393681340107e+01 -27 33 20
5082 2 6.2835141484446053e+00 1.7319753488057145e+01 2.5510368309243102e+01 -28 38 17
8555 1 7.2905652286659617e+00 2.1678407149421311e+01 2.5086427208609983e+01 -25 40 23
13535 1 7.3878168940900979e+00 1.9769450545516531e+01 2.6621087918756437e+01 -31 37 31
9208 1 6.8016208054222940e+00 1.8514224771504541e+01 2.2707364538047752e+01 -31 34 24
5666 1 8.2685503227773314e+00 1.9563520203390212e+01 2.4394890261123699e+01 -24 40 27
3978 1 6.8084406760581402e+00 2.1199548912840491e+01 2.2616381263450887e+01 -27 36 29
9591 1 9.1265315822232687e+00 1.7944286397681168e+01 2.6202250940379855e+01 -29 38 25
9502 2 1.0379000558919635e+01 2.0897532813751162e+01 2.5818814359105556e+01 -28 37 21
1937 2 1.1336055563084001e+01 1.8416888275714395e+01 2.4511598322424369e+01 -29 33 22
8890 2 9.3966706313422534e+00 2.2007156433988257e+01 2.3155330537214226e+01 -25 36 26
9606 1 1.3573973925825475e+01 1.7126137163322561e+01 2.5661096980804651e+01 -35 36 27
13698 1 1.1732283705506934e+01 1.8253739714286070e+01 2.7231189838374842e+01 -30 40 25
9227 2 1.2468795152190703e+01 2.1083738501729236e+01 2.3176020004168155e+01 -30 39 23
13816 1 1.3468906484885032e+01 1.9814605570873127e+01 2.5901301875199270e+01 -28 35 23
11767 1 1.4094960679263497e+01 1.8655173565039107e+01 2.3513698664952017e+01 -31 37 22
798 2 1.5681887244495817e+01 2.1090521947509625e+01 2.4128878479535082e+01 -30 42 26
4683 1 1.5890122929706695e+01 1.8475875374642591e+01 2.5521840358124603e+01 -32 36 24
3986 2 1.6065337994692644e+01 2.0919312772281156e+01 2.6967274256621693e+01 -35 34 25
8471 1 1.9985928146127225e+01 1.7490838133823083e+01 2.3363492044216787e+01 -30 34 24
5986 1 1.7278812730519867e+01 1.8409067157679036e+01 2.3016804222091736e+01 -29 40 21
12845 2 1.8393712824996399e+01 1.9657500598842418e+01 2.5077650938414052e+01 -29 36 24
8112 1 1.9843086771974686e+01 1.8011118024896909e+01 2.7356087204062330e+01 -28 35 22
6128 1 2.0982476248095793e+01 1.8542578661719791e+01 2.5307713566341199e+01 -33 38 24
10928 2 2.1038660659866238e+01 1.9908121875571261e+01 2.2915869559679326e+01 -27 35 25
7340 2 2.1731254790662391e+01 2.1201067051239708e+01 2.6011830857082863e+01 -30 39 26
8806 2 1.8234924469474372e+01 2.1115130531801967e+01 2.2217983539463624e+01 -31 35 20
12167 1 1.8004607353431965e+01 2.2093752274491969e+01 2.5530603192912594e+01 -26 38 29
505 2 7.1875823259224001e+00 1.0584856075464604e+01 3.2269524955086631e+01 -31 35 25
4746 1 7.6722612517636826e+00 1.0842455173549411e+01 2.8370947022163158e+01 -31 34 26
2251 2 7.9437423322334269e+00 8.6008284916512316e+00 2.9458908543954578e+01 -34 40 26
12948 1 8.4852300393768800e+00 8.0532883982104373e+00 3.1994305811361876e+01 -32 36 26
12803 2 1.0495249367913310e+01 1.1412252704412008e+01 2.8290426955111954e+01 -30 35 28
12818 2 1.0452239354971827e+01 9.8532800542567003e+00 3.1309607780482366e+01 -32 33 21
11979 2 1.0490007127996435e+01 6.5976354808671056e+00 3.0831903431099814e+01 -31 34 23
9346 1 1.0863923106425542e+01 8.5026743884599725e+00 2.8934987673301794e+01 -29 39 24
8232 1 1.2273939653986696e+01 6.4920199002667296e+00 2.8369253418440994e+01 -29 38 24
14284 2 1.3172130233300033e+01 7.9769793675880143e+00 3.0590251095078731e+01 -33 39 25
12565 2 1.3634253556517992e+01 1.0775729474464441e+01 2.9447719063592359e+01 -33 36 22
8953 1 1.5424100868304807e+01 8.4084246693939999e+00 2.8756912419395153e+01 -27 37 26
9459 2 1.6008929376154050e+01 9.4176385527590938e+00 3.1175725316023275e+01 -33 35 22
437 2 1.6324262434950398e+01 6.4269574299633270e+00 3.0788462421725864e+01 -28 41 24
3950 2 1.7986831189725166e+01 6.8274213384604607e+00 2.7816578468609212e+01 -24 37 20
1156 1 1.9841197735252145e+01 1.0946692782016624e+01 2.9930764416752329e+01 -22 39 22
1263 2 1.7796809770869260e+01 9.9135893610813604e+00 2.8306835580641238e+01 -31 34 24
12398 1 1.8501873027032374e+01 1.0726989958488742e+01 3.1982820375718475e+01 -31 35 23
7578 1 1.8462969640116182e+01 8.5388223873399696e+00 3.0446261398412190e+01 -27 36 24
8088 2 2.0702089799489674e+01 8.4658854048080201e+00 2.8900622686620856e+01 -30 37 28
12706 2 2.1212757817530669e+01 9.0867181806820767e+00 3.1835014294659778e+01 -23 39 26
14048 1 8.6616976126798768e+00 1.1860733904726688e+01 3.0452262622477630e+01 -32 37 24
1201 1 7.2749686395633599e+00 1.3361006170126547e+01 3.2541492440778065e+01 -27 38 27
13631 2 7.9384707464158906e+00 1.5121552365211427e+01 3.0425790038369218e+01 -25 39 21
4720 1 8.2952015777427910e+00 1.3338316215347664e+01 2.8118761555332295e+01 -28 35 24
3386 2 9.8802598760546907e+00 1.3179632931640642e+01 3.2562719892981235e+01 -31 35 23
1920 2 1.0109307813494762e+01 1.6142813481160246e+01 2.8373137787500820e+01 -33 34 29
2516 1 1.0128239831435378e+01 1.3656450055295149e+01 2.9670702081057780e+01 -24 38 23
11503 1 9.0331946735399598e+00 1.5998889172142032e+01 3.2689802753449285e+01 -29 41 24
6112 1 1.1849026628413407e+01 1.2174397814870668e+01 3.1055880857421798e+01 -27 38 26
11086 2 1.1546467709047240e+01 1.5395475348923995e+01 3.1122946518375134e+01 -32 35 23
1490 1 1.2384613402841264e+01 1.3356757478051424e+01 2.8947933429634727e+01 -31 37 25
9917 2 1.3276121351170922e+01 1.5880849665955303e+01 2.8341272093460429e+01 -31 35 23
8339 2 1.4220082362828224e+01 1.3740307347811850e+01 3.1081199017160813e+01 -30 38 17
9364 1 1.4811331433710304e+01 1.3236265545700501e+01 2.8042792896626164e+01 -32 35 21
3576 1 1.6068213875499438e+01 1.1991512536417215e+01 2.9584766000470601e+01 -34 37 25
8168 1 1.6217398896365026e+01 1.1861174835709104e+01 3.1965253358396623e+01 -31 34 24
7553 1 1.6454163927008821e+01 1.4781448962275785e+01 2.9036974173185122e+01 -28 42 22
5866 2 1.5255374654729891e+01 1.6731152888009756e+01 3.0443529664791161e+01 -26 34 29
5521 1 1.6570691373569879e+01 1.4608205307045949e+01 3.2120696864242319e+01 -27 38 20
2594 2 1.7825950992572118e+01 1.2867508558338773e+01 2.7454298396020210e+01 -28 35 20
4933 2 2.1194167274293463e+01 1.4604190860221772e+01 3.0384880957597240e+01 -24 41 26
9758 2 2.0886575338056446e+01 1.2286481038846592e+01 3.2268656361288009e+01 -27 32 22
6342 1 2.0277508484516879e+01 1.2990090212295360e+01 2.8381921274166753e+01 -35 44 23